#fulleren benden structure   
1860 atoms
1  atom types
 -50   200 xlo xhi
 -50  50 ylo yhi
 -10   10 zlo zhi 
Atoms

1	1	2.1665	0.5906	2.5874
2	1	3.0378	0.1766	1.5918
3	1	1.2786	-0.3098	3.1679
4	1	3.0118	-1.1434	1.1654
5	1	3.1034	-1.4335	-0.1930
6	1	3.1503	1.2106	0.6682
7	1	3.2428	0.9149	-0.6859
8	1	3.2192	-0.4023	-1.1207
9	1	-0.4393	1.3527	3.1271
10	1	0.4363	2.2618	2.5542
11	1	-0.0296	0.0633	3.4379
12	1	1.7442	1.8790	2.2830
13	1	2.3519	2.2676	1.0990
14	1	-0.2633	3.0268	1.6326
15	1	0.3374	3.4054	0.4373
16	1	1.6516	3.0278	0.1707
17	1	-2.0903	-0.8225	2.5955
18	1	-2.5111	0.4664	2.2854
19	1	-0.8449	-1.0252	3.1738
20	1	-1.6874	1.5533	2.5512
21	1	-1.5843	2.5858	1.6319
22	1	-3.2314	0.4061	1.1007
23	1	-3.1227	1.4410	0.1746
24	1	-2.2947	2.5291	0.4399
25	1	-0.4908	-2.9133	1.7365
26	1	-1.7430	-2.7124	1.1637
27	1	-0.0393	-2.0684	2.7453
28	1	-2.5486	-1.6650	1.5942
29	1	-3.2602	-0.9141	0.6701
30	1	-1.6543	-3.0061	-0.1897
31	1	-2.3542	-2.2439	-1.1170
32	1	-3.1643	-1.1949	-0.6878
33	1	2.1364	-2.0553	1.7358
34	1	1.6895	-2.9009	0.7293
35	1	1.2785	-1.6366	2.7435
36	1	0.3678	-3.3327	0.7302
37	1	-0.3440	-3.3904	-0.4594
38	1	2.2889	-2.5250	-0.4640
39	1	1.5790	-2.5718	-1.6580
40	1	0.2560	-3.0054	-1.6531
41	1	-2.1828	-0.5783	-2.5979
42	1	-1.7480	-1.8694	-2.3083
43	1	-0.4385	-2.2469	-2.5845
44	1	-1.2815	0.3189	-3.1671
45	1	-2.1526	2.0545	-1.7378
46	1	-3.0485	1.1535	-1.1811
47	1	-3.0656	-0.1629	-1.6107
48	1	-1.2661	1.6407	-2.7271
49	1	0.5039	2.9361	-1.7418
50	1	-0.3788	3.3561	-0.7513
51	1	-1.6943	2.9186	-0.7491
52	1	0.0521	2.0730	-2.7355
53	1	2.0976	0.8340	-2.6051
54	1	2.5517	1.6923	-1.6107
55	1	1.7589	2.7452	-1.1824
56	1	0.8420	1.0206	-3.1786
57	1	0.4461	-1.3495	-3.1661
58	1	1.6983	-1.5485	-2.5908
59	1	2.5184	-0.4623	-2.3171
60	1	0.0218	-0.0645	-3.4585
61	1	2.1665	10.5906	2.5874
62	1	3.0378	10.1766	1.5918
63	1	1.2786	9.6902	3.1679
64	1	3.0118	8.8566	1.1654
65	1	3.1034	8.5665	-0.1930
66	1	3.1503	11.2106	0.6682
67	1	3.2428	10.9149	-0.6859
68	1	3.2192	9.5977	-1.1207
69	1	-0.4393	11.3527	3.1271
70	1	0.4363	12.2618	2.5542
71	1	-0.0296	10.0633	3.4379
72	1	1.7442	11.8790	2.2830
73	1	2.3519	12.2676	1.0990
74	1	-0.2633	13.0268	1.6326
75	1	0.3374	13.4054	0.4373
76	1	1.6516	13.0278	0.1707
77	1	-2.0903	9.1775	2.5955
78	1	-2.5111	10.4664	2.2854
79	1	-0.8449	8.9748	3.1738
80	1	-1.6874	11.5533	2.5512
81	1	-1.5843	12.5858	1.6319
82	1	-3.2314	10.4061	1.1007
83	1	-3.1227	11.4410	0.1746
84	1	-2.2947	12.5291	0.4399
85	1	-0.4908	7.0867	1.7365
86	1	-1.7430	7.2876	1.1637
87	1	-0.0393	7.9316	2.7453
88	1	-2.5486	8.3350	1.5942
89	1	-3.2602	9.0859	0.6701
90	1	-1.6543	6.9939	-0.1897
91	1	-2.3542	7.7561	-1.1170
92	1	-3.1643	8.8051	-0.6878
93	1	2.1364	7.9447	1.7358
94	1	1.6895	7.0991	0.7293
95	1	1.2785	8.3634	2.7435
96	1	0.3678	6.6673	0.7302
97	1	-0.3440	6.6096	-0.4594
98	1	2.2889	7.4750	-0.4640
99	1	1.5790	7.4282	-1.6580
100	1	0.2560	6.9946	-1.6531
101	1	-2.1828	9.4217	-2.5979
102	1	-1.7480	8.1306	-2.3083
103	1	-0.4385	7.7531	-2.5845
104	1	-1.2815	10.3189	-3.1671
105	1	-2.1526	12.0545	-1.7378
106	1	-3.0485	11.1535	-1.1811
107	1	-3.0656	9.8371	-1.6107
108	1	-1.2661	11.6407	-2.7271
109	1	0.5039	12.9361	-1.7418
110	1	-0.3788	13.3561	-0.7513
111	1	-1.6943	12.9186	-0.7491
112	1	0.0521	12.0730	-2.7355
113	1	2.0976	10.8340	-2.6051
114	1	2.5517	11.6923	-1.6107
115	1	1.7589	12.7452	-1.1824
116	1	0.8420	11.0206	-3.1786
117	1	0.4461	8.6505	-3.1661
118	1	1.6983	8.4515	-2.5908
119	1	2.5184	9.5377	-2.3171
120	1	0.0218	9.9355	-3.4585
121	1	2.1665	20.5906	2.5874
122	1	3.0378	20.1766	1.5918
123	1	1.2786	19.6902	3.1679
124	1	3.0118	18.8566	1.1654
125	1	3.1034	18.5665	-0.1930
126	1	3.1503	21.2106	0.6682
127	1	3.2428	20.9149	-0.6859
128	1	3.2192	19.5977	-1.1207
129	1	-0.4393	21.3527	3.1271
130	1	0.4363	22.2618	2.5542
131	1	-0.0296	20.0633	3.4379
132	1	1.7442	21.8790	2.2830
133	1	2.3519	22.2676	1.0990
134	1	-0.2633	23.0268	1.6326
135	1	0.3374	23.4054	0.4373
136	1	1.6516	23.0278	0.1707
137	1	-2.0903	19.1775	2.5955
138	1	-2.5111	20.4664	2.2854
139	1	-0.8449	18.9748	3.1738
140	1	-1.6874	21.5533	2.5512
141	1	-1.5843	22.5858	1.6319
142	1	-3.2314	20.4061	1.1007
143	1	-3.1227	21.4410	0.1746
144	1	-2.2947	22.5291	0.4399
145	1	-0.4908	17.0867	1.7365
146	1	-1.7430	17.2876	1.1637
147	1	-0.0393	17.9316	2.7453
148	1	-2.5486	18.3350	1.5942
149	1	-3.2602	19.0859	0.6701
150	1	-1.6543	16.9939	-0.1897
151	1	-2.3542	17.7561	-1.1170
152	1	-3.1643	18.8051	-0.6878
153	1	2.1364	17.9447	1.7358
154	1	1.6895	17.0991	0.7293
155	1	1.2785	18.3634	2.7435
156	1	0.3678	16.6673	0.7302
157	1	-0.3440	16.6096	-0.4594
158	1	2.2889	17.4750	-0.4640
159	1	1.5790	17.4282	-1.6580
160	1	0.2560	16.9946	-1.6531
161	1	-2.1828	19.4217	-2.5979
162	1	-1.7480	18.1306	-2.3083
163	1	-0.4385	17.7531	-2.5845
164	1	-1.2815	20.3189	-3.1671
165	1	-2.1526	22.0545	-1.7378
166	1	-3.0485	21.1535	-1.1811
167	1	-3.0656	19.8371	-1.6107
168	1	-1.2661	21.6407	-2.7271
169	1	0.5039	22.9361	-1.7418
170	1	-0.3788	23.3561	-0.7513
171	1	-1.6943	22.9186	-0.7491
172	1	0.0521	22.0730	-2.7355
173	1	2.0976	20.8340	-2.6051
174	1	2.5517	21.6923	-1.6107
175	1	1.7589	22.7452	-1.1824
176	1	0.8420	21.0206	-3.1786
177	1	0.4461	18.6505	-3.1661
178	1	1.6983	18.4515	-2.5908
179	1	2.5184	19.5377	-2.3171
180	1	0.0218	19.9355	-3.4585
181	1	12.1665	10.5906	2.5874
182	1	13.0378	10.1766	1.5918
183	1	11.2786	9.6902	3.1679
184	1	13.0118	8.8566	1.1654
185	1	13.1034	8.5665	-0.1930
186	1	13.1503	11.2106	0.6682
187	1	13.2428	10.9149	-0.6859
188	1	13.2192	9.5977	-1.1207
189	1	9.5607	11.3527	3.1271
190	1	10.4363	12.2618	2.5542
191	1	9.9704	10.0633	3.4379
192	1	11.7442	11.8790	2.2830
193	1	12.3519	12.2676	1.0990
194	1	9.7367	13.0268	1.6326
195	1	10.3374	13.4054	0.4373
196	1	11.6516	13.0278	0.1707
197	1	7.9097	9.1775	2.5955
198	1	7.4889	10.4664	2.2854
199	1	9.1551	8.9748	3.1738
200	1	8.3126	11.5533	2.5512
201	1	8.4157	12.5858	1.6319
202	1	6.7686	10.4061	1.1007
203	1	6.8773	11.4410	0.1746
204	1	7.7053	12.5291	0.4399
205	1	9.5092	7.0867	1.7365
206	1	8.2570	7.2876	1.1637
207	1	9.9607	7.9316	2.7453
208	1	7.4514	8.3350	1.5942
209	1	6.7398	9.0859	0.6701
210	1	8.3457	6.9939	-0.1897
211	1	7.6458	7.7561	-1.1170
212	1	6.8357	8.8051	-0.6878
213	1	12.1364	7.9447	1.7358
214	1	11.6895	7.0991	0.7293
215	1	11.2785	8.3634	2.7435
216	1	10.3678	6.6673	0.7302
217	1	9.6560	6.6096	-0.4594
218	1	12.2889	7.4750	-0.4640
219	1	11.5790	7.4282	-1.6580
220	1	10.2560	6.9946	-1.6531
221	1	7.8172	9.4217	-2.5979
222	1	8.2520	8.1306	-2.3083
223	1	9.5615	7.7531	-2.5845
224	1	8.7185	10.3189	-3.1671
225	1	7.8474	12.0545	-1.7378
226	1	6.9515	11.1535	-1.1811
227	1	6.9344	9.8371	-1.6107
228	1	8.7339	11.6407	-2.7271
229	1	10.5039	12.9361	-1.7418
230	1	9.6212	13.3561	-0.7513
231	1	8.3057	12.9186	-0.7491
232	1	10.0521	12.0730	-2.7355
233	1	12.0976	10.8340	-2.6051
234	1	12.5517	11.6923	-1.6107
235	1	11.7589	12.7452	-1.1824
236	1	10.8420	11.0206	-3.1786
237	1	10.4461	8.6505	-3.1661
238	1	11.6983	8.4515	-2.5908
239	1	12.5184	9.5377	-2.3171
240	1	10.0218	9.9355	-3.4585
241	1	17.1665	20.5906	2.5874
242	1	18.0378	20.1766	1.5918
243	1	16.2786	19.6902	3.1679
244	1	18.0118	18.8566	1.1654
245	1	18.1034	18.5665	-0.1930
246	1	18.1503	21.2106	0.6682
247	1	18.2428	20.9149	-0.6859
248	1	18.2192	19.5977	-1.1207
249	1	14.5607	21.3527	3.1271
250	1	15.4363	22.2618	2.5542
251	1	14.9704	20.0633	3.4379
252	1	16.7442	21.8790	2.2830
253	1	17.3519	22.2676	1.0990
254	1	14.7367	23.0268	1.6326
255	1	15.3374	23.4054	0.4373
256	1	16.6516	23.0278	0.1707
257	1	12.9097	19.1775	2.5955
258	1	12.4889	20.4664	2.2854
259	1	14.1551	18.9748	3.1738
260	1	13.3126	21.5533	2.5512
261	1	13.4157	22.5858	1.6319
262	1	11.7686	20.4061	1.1007
263	1	11.8773	21.4410	0.1746
264	1	12.7053	22.5291	0.4399
265	1	14.5092	17.0867	1.7365
266	1	13.2570	17.2876	1.1637
267	1	14.9607	17.9316	2.7453
268	1	12.4514	18.3350	1.5942
269	1	11.7398	19.0859	0.6701
270	1	13.3457	16.9939	-0.1897
271	1	12.6458	17.7561	-1.1170
272	1	11.8357	18.8051	-0.6878
273	1	17.1364	17.9447	1.7358
274	1	16.6895	17.0991	0.7293
275	1	16.2785	18.3634	2.7435
276	1	15.3678	16.6673	0.7302
277	1	14.6560	16.6096	-0.4594
278	1	17.2889	17.4750	-0.4640
279	1	16.5790	17.4282	-1.6580
280	1	15.2560	16.9946	-1.6531
281	1	12.8172	19.4217	-2.5979
282	1	13.2520	18.1306	-2.3083
283	1	14.5615	17.7531	-2.5845
284	1	13.7185	20.3189	-3.1671
285	1	12.8474	22.0545	-1.7378
286	1	11.9515	21.1535	-1.1811
287	1	11.9344	19.8371	-1.6107
288	1	13.7339	21.6407	-2.7271
289	1	15.5039	22.9361	-1.7418
290	1	14.6212	23.3561	-0.7513
291	1	13.3057	22.9186	-0.7491
292	1	15.0521	22.0730	-2.7355
293	1	17.0976	20.8340	-2.6051
294	1	17.5517	21.6923	-1.6107
295	1	16.7589	22.7452	-1.1824
296	1	15.8420	21.0206	-3.1786
297	1	15.4461	18.6505	-3.1661
298	1	16.6983	18.4515	-2.5908
299	1	17.5184	19.5377	-2.3171
300	1	15.0218	19.9355	-3.4585
301	1	17.1665	0.5906	2.5874
302	1	18.0378	0.1766	1.5918
303	1	16.2786	-0.3098	3.1679
304	1	18.0118	-1.1434	1.1654
305	1	18.1034	-1.4335	-0.1930
306	1	18.1503	1.2106	0.6682
307	1	18.2428	0.9149	-0.6859
308	1	18.2192	-0.4023	-1.1207
309	1	14.5607	1.3527	3.1271
310	1	15.4363	2.2618	2.5542
311	1	14.9704	0.0633	3.4379
312	1	16.7442	1.8790	2.2830
313	1	17.3519	2.2676	1.0990
314	1	14.7367	3.0268	1.6326
315	1	15.3374	3.4054	0.4373
316	1	16.6516	3.0278	0.1707
317	1	12.9097	-0.8225	2.5955
318	1	12.4889	0.4664	2.2854
319	1	14.1551	-1.0252	3.1738
320	1	13.3126	1.5533	2.5512
321	1	13.4157	2.5858	1.6319
322	1	11.7686	0.4061	1.1007
323	1	11.8773	1.4410	0.1746
324	1	12.7053	2.5291	0.4399
325	1	14.5092	-2.9133	1.7365
326	1	13.2570	-2.7124	1.1637
327	1	14.9607	-2.0684	2.7453
328	1	12.4514	-1.6650	1.5942
329	1	11.7398	-0.9141	0.6701
330	1	13.3457	-3.0061	-0.1897
331	1	12.6458	-2.2439	-1.1170
332	1	11.8357	-1.1949	-0.6878
333	1	17.1364	-2.0553	1.7358
334	1	16.6895	-2.9009	0.7293
335	1	16.2785	-1.6366	2.7435
336	1	15.3678	-3.3327	0.7302
337	1	14.6560	-3.3904	-0.4594
338	1	17.2889	-2.5250	-0.4640
339	1	16.5790	-2.5718	-1.6580
340	1	15.2560	-3.0054	-1.6531
341	1	12.8172	-0.5783	-2.5979
342	1	13.2520	-1.8694	-2.3083
343	1	14.5615	-2.2469	-2.5845
344	1	13.7185	0.3189	-3.1671
345	1	12.8474	2.0545	-1.7378
346	1	11.9515	1.1535	-1.1811
347	1	11.9344	-0.1629	-1.6107
348	1	13.7339	1.6407	-2.7271
349	1	15.5039	2.9361	-1.7418
350	1	14.6212	3.3561	-0.7513
351	1	13.3057	2.9186	-0.7491
352	1	15.0521	2.0730	-2.7355
353	1	17.0976	0.8340	-2.6051
354	1	17.5517	1.6923	-1.6107
355	1	16.7589	2.7452	-1.1824
356	1	15.8420	1.0206	-3.1786
357	1	15.4461	-1.3495	-3.1661
358	1	16.6983	-1.5485	-2.5908
359	1	17.5184	-0.4623	-2.3171
360	1	15.0218	-0.0645	-3.4585
361	1	27.1665	0.5906	2.5874
362	1	28.0378	0.1766	1.5918
363	1	26.2786	-0.3098	3.1679
364	1	28.0118	-1.1434	1.1654
365	1	28.1034	-1.4335	-0.1930
366	1	28.1503	1.2106	0.6682
367	1	28.2428	0.9149	-0.6859
368	1	28.2192	-0.4023	-1.1207
369	1	24.5607	1.3527	3.1271
370	1	25.4363	2.2618	2.5542
371	1	24.9704	0.0633	3.4379
372	1	26.7442	1.8790	2.2830
373	1	27.3519	2.2676	1.0990
374	1	24.7367	3.0268	1.6326
375	1	25.3374	3.4054	0.4373
376	1	26.6516	3.0278	0.1707
377	1	22.9097	-0.8225	2.5955
378	1	22.4889	0.4664	2.2854
379	1	24.1551	-1.0252	3.1738
380	1	23.3126	1.5533	2.5512
381	1	23.4157	2.5858	1.6319
382	1	21.7686	0.4061	1.1007
383	1	21.8773	1.4410	0.1746
384	1	22.7053	2.5291	0.4399
385	1	24.5092	-2.9133	1.7365
386	1	23.2570	-2.7124	1.1637
387	1	24.9607	-2.0684	2.7453
388	1	22.4514	-1.6650	1.5942
389	1	21.7398	-0.9141	0.6701
390	1	23.3457	-3.0061	-0.1897
391	1	22.6458	-2.2439	-1.1170
392	1	21.8357	-1.1949	-0.6878
393	1	27.1364	-2.0553	1.7358
394	1	26.6895	-2.9009	0.7293
395	1	26.2785	-1.6366	2.7435
396	1	25.3678	-3.3327	0.7302
397	1	24.6560	-3.3904	-0.4594
398	1	27.2889	-2.5250	-0.4640
399	1	26.5790	-2.5718	-1.6580
400	1	25.2560	-3.0054	-1.6531
401	1	22.8172	-0.5783	-2.5979
402	1	23.2520	-1.8694	-2.3083
403	1	24.5615	-2.2469	-2.5845
404	1	23.7185	0.3189	-3.1671
405	1	22.8474	2.0545	-1.7378
406	1	21.9515	1.1535	-1.1811
407	1	21.9344	-0.1629	-1.6107
408	1	23.7339	1.6407	-2.7271
409	1	25.5039	2.9361	-1.7418
410	1	24.6212	3.3561	-0.7513
411	1	23.3057	2.9186	-0.7491
412	1	25.0521	2.0730	-2.7355
413	1	27.0976	0.8340	-2.6051
414	1	27.5517	1.6923	-1.6107
415	1	26.7589	2.7452	-1.1824
416	1	25.8420	1.0206	-3.1786
417	1	25.4461	-1.3495	-3.1661
418	1	26.6983	-1.5485	-2.5908
419	1	27.5184	-0.4623	-2.3171
420	1	25.0218	-0.0645	-3.4585
421	1	32.1665	10.5906	2.5874
422	1	33.0378	10.1766	1.5918
423	1	31.2786	9.6902	3.1679
424	1	33.0118	8.8566	1.1654
425	1	33.1034	8.5665	-0.1930
426	1	33.1503	11.2106	0.6682
427	1	33.2428	10.9149	-0.6859
428	1	33.2192	9.5977	-1.1207
429	1	29.5607	11.3527	3.1271
430	1	30.4363	12.2618	2.5542
431	1	29.9704	10.0633	3.4379
432	1	31.7442	11.8790	2.2830
433	1	32.3519	12.2676	1.0990
434	1	29.7367	13.0268	1.6326
435	1	30.3374	13.4054	0.4373
436	1	31.6516	13.0278	0.1707
437	1	27.9097	9.1775	2.5955
438	1	27.4889	10.4664	2.2854
439	1	29.1551	8.9748	3.1738
440	1	28.3126	11.5533	2.5512
441	1	28.4157	12.5858	1.6319
442	1	26.7686	10.4061	1.1007
443	1	26.8773	11.4410	0.1746
444	1	27.7053	12.5291	0.4399
445	1	29.5092	7.0867	1.7365
446	1	28.2570	7.2876	1.1637
447	1	29.9607	7.9316	2.7453
448	1	27.4514	8.3350	1.5942
449	1	26.7398	9.0859	0.6701
450	1	28.3457	6.9939	-0.1897
451	1	27.6458	7.7561	-1.1170
452	1	26.8357	8.8051	-0.6878
453	1	32.1364	7.9447	1.7358
454	1	31.6895	7.0991	0.7293
455	1	31.2785	8.3634	2.7435
456	1	30.3678	6.6673	0.7302
457	1	29.6560	6.6096	-0.4594
458	1	32.2889	7.4750	-0.4640
459	1	31.5790	7.4282	-1.6580
460	1	30.2560	6.9946	-1.6531
461	1	27.8172	9.4217	-2.5979
462	1	28.2520	8.1306	-2.3083
463	1	29.5615	7.7531	-2.5845
464	1	28.7185	10.3189	-3.1671
465	1	27.8474	12.0545	-1.7378
466	1	26.9515	11.1535	-1.1811
467	1	26.9344	9.8371	-1.6107
468	1	28.7339	11.6407	-2.7271
469	1	30.5039	12.9361	-1.7418
470	1	29.6212	13.3561	-0.7513
471	1	28.3057	12.9186	-0.7491
472	1	30.0521	12.0730	-2.7355
473	1	32.0976	10.8340	-2.6051
474	1	32.5517	11.6923	-1.6107
475	1	31.7589	12.7452	-1.1824
476	1	30.8420	11.0206	-3.1786
477	1	30.4461	8.6505	-3.1661
478	1	31.6983	8.4515	-2.5908
479	1	32.5184	9.5377	-2.3171
480	1	30.0218	9.9355	-3.4585
481	1	37.1665	20.5906	2.5874
482	1	38.0378	20.1766	1.5918
483	1	36.2786	19.6902	3.1679
484	1	38.0118	18.8566	1.1654
485	1	38.1034	18.5665	-0.1930
486	1	38.1503	21.2106	0.6682
487	1	38.2428	20.9149	-0.6859
488	1	38.2192	19.5977	-1.1207
489	1	34.5607	21.3527	3.1271
490	1	35.4363	22.2618	2.5542
491	1	34.9704	20.0633	3.4379
492	1	36.7442	21.8790	2.2830
493	1	37.3519	22.2676	1.0990
494	1	34.7367	23.0268	1.6326
495	1	35.3374	23.4054	0.4373
496	1	36.6516	23.0278	0.1707
497	1	32.9097	19.1775	2.5955
498	1	32.4889	20.4664	2.2854
499	1	34.1551	18.9748	3.1738
500	1	33.3126	21.5533	2.5512
501	1	33.4157	22.5858	1.6319
502	1	31.7686	20.4061	1.1007
503	1	31.8773	21.4410	0.1746
504	1	32.7053	22.5291	0.4399
505	1	34.5092	17.0867	1.7365
506	1	33.2570	17.2876	1.1637
507	1	34.9607	17.9316	2.7453
508	1	32.4514	18.3350	1.5942
509	1	31.7398	19.0859	0.6701
510	1	33.3457	16.9939	-0.1897
511	1	32.6458	17.7561	-1.1170
512	1	31.8357	18.8051	-0.6878
513	1	37.1364	17.9447	1.7358
514	1	36.6895	17.0991	0.7293
515	1	36.2785	18.3634	2.7435
516	1	35.3678	16.6673	0.7302
517	1	34.6560	16.6096	-0.4594
518	1	37.2889	17.4750	-0.4640
519	1	36.5790	17.4282	-1.6580
520	1	35.2560	16.9946	-1.6531
521	1	32.8172	19.4217	-2.5979
522	1	33.2520	18.1306	-2.3083
523	1	34.5615	17.7531	-2.5845
524	1	33.7185	20.3189	-3.1671
525	1	32.8474	22.0545	-1.7378
526	1	31.9515	21.1535	-1.1811
527	1	31.9344	19.8371	-1.6107
528	1	33.7339	21.6407	-2.7271
529	1	35.5039	22.9361	-1.7418
530	1	34.6212	23.3561	-0.7513
531	1	33.3057	22.9186	-0.7491
532	1	35.0521	22.0730	-2.7355
533	1	37.0976	20.8340	-2.6051
534	1	37.5517	21.6923	-1.6107
535	1	36.7589	22.7452	-1.1824
536	1	35.8420	21.0206	-3.1786
537	1	35.4461	18.6505	-3.1661
538	1	36.6983	18.4515	-2.5908
539	1	37.5184	19.5377	-2.3171
540	1	35.0218	19.9355	-3.4585
541	1	42.1665	10.5906	2.5874
542	1	43.0378	10.1766	1.5918
543	1	41.2786	9.6902	3.1679
544	1	43.0118	8.8566	1.1654
545	1	43.1034	8.5665	-0.1930
546	1	43.1503	11.2106	0.6682
547	1	43.2428	10.9149	-0.6859
548	1	43.2192	9.5977	-1.1207
549	1	39.5607	11.3527	3.1271
550	1	40.4363	12.2618	2.5542
551	1	39.9704	10.0633	3.4379
552	1	41.7442	11.8790	2.2830
553	1	42.3519	12.2676	1.0990
554	1	39.7367	13.0268	1.6326
555	1	40.3374	13.4054	0.4373
556	1	41.6516	13.0278	0.1707
557	1	37.9097	9.1775	2.5955
558	1	37.4889	10.4664	2.2854
559	1	39.1551	8.9748	3.1738
560	1	38.3126	11.5533	2.5512
561	1	38.4157	12.5858	1.6319
562	1	36.7686	10.4061	1.1007
563	1	36.8773	11.4410	0.1746
564	1	37.7053	12.5291	0.4399
565	1	39.5092	7.0867	1.7365
566	1	38.2570	7.2876	1.1637
567	1	39.9607	7.9316	2.7453
568	1	37.4514	8.3350	1.5942
569	1	36.7398	9.0859	0.6701
570	1	38.3457	6.9939	-0.1897
571	1	37.6458	7.7561	-1.1170
572	1	36.8357	8.8051	-0.6878
573	1	42.1364	7.9447	1.7358
574	1	41.6895	7.0991	0.7293
575	1	41.2785	8.3634	2.7435
576	1	40.3678	6.6673	0.7302
577	1	39.6560	6.6096	-0.4594
578	1	42.2889	7.4750	-0.4640
579	1	41.5790	7.4282	-1.6580
580	1	40.2560	6.9946	-1.6531
581	1	37.8172	9.4217	-2.5979
582	1	38.2520	8.1306	-2.3083
583	1	39.5615	7.7531	-2.5845
584	1	38.7185	10.3189	-3.1671
585	1	37.8474	12.0545	-1.7378
586	1	36.9515	11.1535	-1.1811
587	1	36.9344	9.8371	-1.6107
588	1	38.7339	11.6407	-2.7271
589	1	40.5039	12.9361	-1.7418
590	1	39.6212	13.3561	-0.7513
591	1	38.3057	12.9186	-0.7491
592	1	40.0521	12.0730	-2.7355
593	1	42.0976	10.8340	-2.6051
594	1	42.5517	11.6923	-1.6107
595	1	41.7589	12.7452	-1.1824
596	1	40.8420	11.0206	-3.1786
597	1	40.4461	8.6505	-3.1661
598	1	41.6983	8.4515	-2.5908
599	1	42.5184	9.5377	-2.3171
600	1	40.0218	9.9355	-3.4585
601	1	47.1665	0.5906	2.5874
602	1	48.0378	0.1766	1.5918
603	1	46.2786	-0.3098	3.1679
604	1	48.0118	-1.1434	1.1654
605	1	48.1034	-1.4335	-0.1930
606	1	48.1503	1.2106	0.6682
607	1	48.2428	0.9149	-0.6859
608	1	48.2192	-0.4023	-1.1207
609	1	44.5607	1.3527	3.1271
610	1	45.4363	2.2618	2.5542
611	1	44.9704	0.0633	3.4379
612	1	46.7442	1.8790	2.2830
613	1	47.3519	2.2676	1.0990
614	1	44.7367	3.0268	1.6326
615	1	45.3374	3.4054	0.4373
616	1	46.6516	3.0278	0.1707
617	1	42.9097	-0.8225	2.5955
618	1	42.4889	0.4664	2.2854
619	1	44.1551	-1.0252	3.1738
620	1	43.3126	1.5533	2.5512
621	1	43.4157	2.5858	1.6319
622	1	41.7686	0.4061	1.1007
623	1	41.8773	1.4410	0.1746
624	1	42.7053	2.5291	0.4399
625	1	44.5092	-2.9133	1.7365
626	1	43.2570	-2.7124	1.1637
627	1	44.9607	-2.0684	2.7453
628	1	42.4514	-1.6650	1.5942
629	1	41.7398	-0.9141	0.6701
630	1	43.3457	-3.0061	-0.1897
631	1	42.6458	-2.2439	-1.1170
632	1	41.8357	-1.1949	-0.6878
633	1	47.1364	-2.0553	1.7358
634	1	46.6895	-2.9009	0.7293
635	1	46.2785	-1.6366	2.7435
636	1	45.3678	-3.3327	0.7302
637	1	44.6560	-3.3904	-0.4594
638	1	47.2889	-2.5250	-0.4640
639	1	46.5790	-2.5718	-1.6580
640	1	45.2560	-3.0054	-1.6531
641	1	42.8172	-0.5783	-2.5979
642	1	43.2520	-1.8694	-2.3083
643	1	44.5615	-2.2469	-2.5845
644	1	43.7185	0.3189	-3.1671
645	1	42.8474	2.0545	-1.7378
646	1	41.9515	1.1535	-1.1811
647	1	41.9344	-0.1629	-1.6107
648	1	43.7339	1.6407	-2.7271
649	1	45.5039	2.9361	-1.7418
650	1	44.6212	3.3561	-0.7513
651	1	43.3057	2.9186	-0.7491
652	1	45.0521	2.0730	-2.7355
653	1	47.0976	0.8340	-2.6051
654	1	47.5517	1.6923	-1.6107
655	1	46.7589	2.7452	-1.1824
656	1	45.8420	1.0206	-3.1786
657	1	45.4461	-1.3495	-3.1661
658	1	46.6983	-1.5485	-2.5908
659	1	47.5184	-0.4623	-2.3171
660	1	45.0218	-0.0645	-3.4585
661	1	57.1665	0.5906	2.5874
662	1	58.0378	0.1766	1.5918
663	1	56.2786	-0.3098	3.1679
664	1	58.0118	-1.1434	1.1654
665	1	58.1034	-1.4335	-0.1930
666	1	58.1503	1.2106	0.6682
667	1	58.2428	0.9149	-0.6859
668	1	58.2192	-0.4023	-1.1207
669	1	54.5607	1.3527	3.1271
670	1	55.4363	2.2618	2.5542
671	1	54.9704	0.0633	3.4379
672	1	56.7442	1.8790	2.2830
673	1	57.3519	2.2676	1.0990
674	1	54.7367	3.0268	1.6326
675	1	55.3374	3.4054	0.4373
676	1	56.6516	3.0278	0.1707
677	1	52.9097	-0.8225	2.5955
678	1	52.4889	0.4664	2.2854
679	1	54.1551	-1.0252	3.1738
680	1	53.3126	1.5533	2.5512
681	1	53.4157	2.5858	1.6319
682	1	51.7686	0.4061	1.1007
683	1	51.8773	1.4410	0.1746
684	1	52.7053	2.5291	0.4399
685	1	54.5092	-2.9133	1.7365
686	1	53.2570	-2.7124	1.1637
687	1	54.9607	-2.0684	2.7453
688	1	52.4514	-1.6650	1.5942
689	1	51.7398	-0.9141	0.6701
690	1	53.3457	-3.0061	-0.1897
691	1	52.6458	-2.2439	-1.1170
692	1	51.8357	-1.1949	-0.6878
693	1	57.1364	-2.0553	1.7358
694	1	56.6895	-2.9009	0.7293
695	1	56.2785	-1.6366	2.7435
696	1	55.3678	-3.3327	0.7302
697	1	54.6560	-3.3904	-0.4594
698	1	57.2889	-2.5250	-0.4640
699	1	56.5790	-2.5718	-1.6580
700	1	55.2560	-3.0054	-1.6531
701	1	52.8172	-0.5783	-2.5979
702	1	53.2520	-1.8694	-2.3083
703	1	54.5615	-2.2469	-2.5845
704	1	53.7185	0.3189	-3.1671
705	1	52.8474	2.0545	-1.7378
706	1	51.9515	1.1535	-1.1811
707	1	51.9344	-0.1629	-1.6107
708	1	53.7339	1.6407	-2.7271
709	1	55.5039	2.9361	-1.7418
710	1	54.6212	3.3561	-0.7513
711	1	53.3057	2.9186	-0.7491
712	1	55.0521	2.0730	-2.7355
713	1	57.0976	0.8340	-2.6051
714	1	57.5517	1.6923	-1.6107
715	1	56.7589	2.7452	-1.1824
716	1	55.8420	1.0206	-3.1786
717	1	55.4461	-1.3495	-3.1661
718	1	56.6983	-1.5485	-2.5908
719	1	57.5184	-0.4623	-2.3171
720	1	55.0218	-0.0645	-3.4585
721	1	57.1665	10.5906	2.5874
722	1	58.0378	10.1766	1.5918
723	1	56.2786	9.6902	3.1679
724	1	58.0118	8.8566	1.1654
725	1	58.1034	8.5665	-0.1930
726	1	58.1503	11.2106	0.6682
727	1	58.2428	10.9149	-0.6859
728	1	58.2192	9.5977	-1.1207
729	1	54.5607	11.3527	3.1271
730	1	55.4363	12.2618	2.5542
731	1	54.9704	10.0633	3.4379
732	1	56.7442	11.8790	2.2830
733	1	57.3519	12.2676	1.0990
734	1	54.7367	13.0268	1.6326
735	1	55.3374	13.4054	0.4373
736	1	56.6516	13.0278	0.1707
737	1	52.9097	9.1775	2.5955
738	1	52.4889	10.4664	2.2854
739	1	54.1551	8.9748	3.1738
740	1	53.3126	11.5533	2.5512
741	1	53.4157	12.5858	1.6319
742	1	51.7686	10.4061	1.1007
743	1	51.8773	11.4410	0.1746
744	1	52.7053	12.5291	0.4399
745	1	54.5092	7.0867	1.7365
746	1	53.2570	7.2876	1.1637
747	1	54.9607	7.9316	2.7453
748	1	52.4514	8.3350	1.5942
749	1	51.7398	9.0859	0.6701
750	1	53.3457	6.9939	-0.1897
751	1	52.6458	7.7561	-1.1170
752	1	51.8357	8.8051	-0.6878
753	1	57.1364	7.9447	1.7358
754	1	56.6895	7.0991	0.7293
755	1	56.2785	8.3634	2.7435
756	1	55.3678	6.6673	0.7302
757	1	54.6560	6.6096	-0.4594
758	1	57.2889	7.4750	-0.4640
759	1	56.5790	7.4282	-1.6580
760	1	55.2560	6.9946	-1.6531
761	1	52.8172	9.4217	-2.5979
762	1	53.2520	8.1306	-2.3083
763	1	54.5615	7.7531	-2.5845
764	1	53.7185	10.3189	-3.1671
765	1	52.8474	12.0545	-1.7378
766	1	51.9515	11.1535	-1.1811
767	1	51.9344	9.8371	-1.6107
768	1	53.7339	11.6407	-2.7271
769	1	55.5039	12.9361	-1.7418
770	1	54.6212	13.3561	-0.7513
771	1	53.3057	12.9186	-0.7491
772	1	55.0521	12.0730	-2.7355
773	1	57.0976	10.8340	-2.6051
774	1	57.5517	11.6923	-1.6107
775	1	56.7589	12.7452	-1.1824
776	1	55.8420	11.0206	-3.1786
777	1	55.4461	8.6505	-3.1661
778	1	56.6983	8.4515	-2.5908
779	1	57.5184	9.5377	-2.3171
780	1	55.0218	9.9355	-3.4585
781	1	57.1665	20.5906	2.5874
782	1	58.0378	20.1766	1.5918
783	1	56.2786	19.6902	3.1679
784	1	58.0118	18.8566	1.1654
785	1	58.1034	18.5665	-0.1930
786	1	58.1503	21.2106	0.6682
787	1	58.2428	20.9149	-0.6859
788	1	58.2192	19.5977	-1.1207
789	1	54.5607	21.3527	3.1271
790	1	55.4363	22.2618	2.5542
791	1	54.9704	20.0633	3.4379
792	1	56.7442	21.8790	2.2830
793	1	57.3519	22.2676	1.0990
794	1	54.7367	23.0268	1.6326
795	1	55.3374	23.4054	0.4373
796	1	56.6516	23.0278	0.1707
797	1	52.9097	19.1775	2.5955
798	1	52.4889	20.4664	2.2854
799	1	54.1551	18.9748	3.1738
800	1	53.3126	21.5533	2.5512
801	1	53.4157	22.5858	1.6319
802	1	51.7686	20.4061	1.1007
803	1	51.8773	21.4410	0.1746
804	1	52.7053	22.5291	0.4399
805	1	54.5092	17.0867	1.7365
806	1	53.2570	17.2876	1.1637
807	1	54.9607	17.9316	2.7453
808	1	52.4514	18.3350	1.5942
809	1	51.7398	19.0859	0.6701
810	1	53.3457	16.9939	-0.1897
811	1	52.6458	17.7561	-1.1170
812	1	51.8357	18.8051	-0.6878
813	1	57.1364	17.9447	1.7358
814	1	56.6895	17.0991	0.7293
815	1	56.2785	18.3634	2.7435
816	1	55.3678	16.6673	0.7302
817	1	54.6560	16.6096	-0.4594
818	1	57.2889	17.4750	-0.4640
819	1	56.5790	17.4282	-1.6580
820	1	55.2560	16.9946	-1.6531
821	1	52.8172	19.4217	-2.5979
822	1	53.2520	18.1306	-2.3083
823	1	54.5615	17.7531	-2.5845
824	1	53.7185	20.3189	-3.1671
825	1	52.8474	22.0545	-1.7378
826	1	51.9515	21.1535	-1.1811
827	1	51.9344	19.8371	-1.6107
828	1	53.7339	21.6407	-2.7271
829	1	55.5039	22.9361	-1.7418
830	1	54.6212	23.3561	-0.7513
831	1	53.3057	22.9186	-0.7491
832	1	55.0521	22.0730	-2.7355
833	1	57.0976	20.8340	-2.6051
834	1	57.5517	21.6923	-1.6107
835	1	56.7589	22.7452	-1.1824
836	1	55.8420	21.0206	-3.1786
837	1	55.4461	18.6505	-3.1661
838	1	56.6983	18.4515	-2.5908
839	1	57.5184	19.5377	-2.3171
840	1	55.0218	19.9355	-3.4585
841	1	67.1665	10.5906	2.5874
842	1	68.0378	10.1766	1.5918
843	1	66.2786	9.6902	3.1679
844	1	68.0118	8.8566	1.1654
845	1	68.1034	8.5665	-0.1930
846	1	68.1503	11.2106	0.6682
847	1	68.2428	10.9149	-0.6859
848	1	68.2192	9.5977	-1.1207
849	1	64.5607	11.3527	3.1271
850	1	65.4363	12.2618	2.5542
851	1	64.9704	10.0633	3.4379
852	1	66.7442	11.8790	2.2830
853	1	67.3519	12.2676	1.0990
854	1	64.7367	13.0268	1.6326
855	1	65.3374	13.4054	0.4373
856	1	66.6516	13.0278	0.1707
857	1	62.9097	9.1775	2.5955
858	1	62.4889	10.4664	2.2854
859	1	64.1551	8.9748	3.1738
860	1	63.3126	11.5533	2.5512
861	1	63.4157	12.5858	1.6319
862	1	61.7686	10.4061	1.1007
863	1	61.8773	11.4410	0.1746
864	1	62.7053	12.5291	0.4399
865	1	64.5092	7.0867	1.7365
866	1	63.2570	7.2876	1.1637
867	1	64.9607	7.9316	2.7453
868	1	62.4514	8.3350	1.5942
869	1	61.7398	9.0859	0.6701
870	1	63.3457	6.9939	-0.1897
871	1	62.6458	7.7561	-1.1170
872	1	61.8357	8.8051	-0.6878
873	1	67.1364	7.9447	1.7358
874	1	66.6895	7.0991	0.7293
875	1	66.2785	8.3634	2.7435
876	1	65.3678	6.6673	0.7302
877	1	64.6560	6.6096	-0.4594
878	1	67.2889	7.4750	-0.4640
879	1	66.5790	7.4282	-1.6580
880	1	65.2560	6.9946	-1.6531
881	1	62.8172	9.4217	-2.5979
882	1	63.2520	8.1306	-2.3083
883	1	64.5615	7.7531	-2.5845
884	1	63.7185	10.3189	-3.1671
885	1	62.8474	12.0545	-1.7378
886	1	61.9515	11.1535	-1.1811
887	1	61.9344	9.8371	-1.6107
888	1	63.7339	11.6407	-2.7271
889	1	65.5039	12.9361	-1.7418
890	1	64.6212	13.3561	-0.7513
891	1	63.3057	12.9186	-0.7491
892	1	65.0521	12.0730	-2.7355
893	1	67.0976	10.8340	-2.6051
894	1	67.5517	11.6923	-1.6107
895	1	66.7589	12.7452	-1.1824
896	1	65.8420	11.0206	-3.1786
897	1	65.4461	8.6505	-3.1661
898	1	66.6983	8.4515	-2.5908
899	1	67.5184	9.5377	-2.3171
900	1	65.0218	9.9355	-3.4585
901	1	72.1665	0.5906	2.5874
902	1	73.0378	0.1766	1.5918
903	1	71.2786	-0.3098	3.1679
904	1	73.0118	-1.1434	1.1654
905	1	73.1034	-1.4335	-0.1930
906	1	73.1503	1.2106	0.6682
907	1	73.2428	0.9149	-0.6859
908	1	73.2192	-0.4023	-1.1207
909	1	69.5607	1.3527	3.1271
910	1	70.4363	2.2618	2.5542
911	1	69.9704	0.0633	3.4379
912	1	71.7442	1.8790	2.2830
913	1	72.3519	2.2676	1.0990
914	1	69.7367	3.0268	1.6326
915	1	70.3374	3.4054	0.4373
916	1	71.6516	3.0278	0.1707
917	1	67.9097	-0.8225	2.5955
918	1	67.4889	0.4664	2.2854
919	1	69.1551	-1.0252	3.1738
920	1	68.3126	1.5533	2.5512
921	1	68.4157	2.5858	1.6319
922	1	66.7686	0.4061	1.1007
923	1	66.8773	1.4410	0.1746
924	1	67.7053	2.5291	0.4399
925	1	69.5092	-2.9133	1.7365
926	1	68.2570	-2.7124	1.1637
927	1	69.9607	-2.0684	2.7453
928	1	67.4514	-1.6650	1.5942
929	1	66.7398	-0.9141	0.6701
930	1	68.3457	-3.0061	-0.1897
931	1	67.6458	-2.2439	-1.1170
932	1	66.8357	-1.1949	-0.6878
933	1	72.1364	-2.0553	1.7358
934	1	71.6895	-2.9009	0.7293
935	1	71.2785	-1.6366	2.7435
936	1	70.3678	-3.3327	0.7302
937	1	69.6560	-3.3904	-0.4594
938	1	72.2889	-2.5250	-0.4640
939	1	71.5790	-2.5718	-1.6580
940	1	70.2560	-3.0054	-1.6531
941	1	67.8172	-0.5783	-2.5979
942	1	68.2520	-1.8694	-2.3083
943	1	69.5615	-2.2469	-2.5845
944	1	68.7185	0.3189	-3.1671
945	1	67.8474	2.0545	-1.7378
946	1	66.9515	1.1535	-1.1811
947	1	66.9344	-0.1629	-1.6107
948	1	68.7339	1.6407	-2.7271
949	1	70.5039	2.9361	-1.7418
950	1	69.6212	3.3561	-0.7513
951	1	68.3057	2.9186	-0.7491
952	1	70.0521	2.0730	-2.7355
953	1	72.0976	0.8340	-2.6051
954	1	72.5517	1.6923	-1.6107
955	1	71.7589	2.7452	-1.1824
956	1	70.8420	1.0206	-3.1786
957	1	70.4461	-1.3495	-3.1661
958	1	71.6983	-1.5485	-2.5908
959	1	72.5184	-0.4623	-2.3171
960	1	70.0218	-0.0645	-3.4585
961	1	77.1665	10.5906	2.5874
962	1	78.0378	10.1766	1.5918
963	1	76.2786	9.6902	3.1679
964	1	78.0118	8.8566	1.1654
965	1	78.1034	8.5665	-0.1930
966	1	78.1503	11.2106	0.6682
967	1	78.2428	10.9149	-0.6859
968	1	78.2192	9.5977	-1.1207
969	1	74.5607	11.3527	3.1271
970	1	75.4363	12.2618	2.5542
971	1	74.9704	10.0633	3.4379
972	1	76.7442	11.8790	2.2830
973	1	77.3519	12.2676	1.0990
974	1	74.7367	13.0268	1.6326
975	1	75.3374	13.4054	0.4373
976	1	76.6516	13.0278	0.1707
977	1	72.9097	9.1775	2.5955
978	1	72.4889	10.4664	2.2854
979	1	74.1551	8.9748	3.1738
980	1	73.3126	11.5533	2.5512
981	1	73.4157	12.5858	1.6319
982	1	71.7686	10.4061	1.1007
983	1	71.8773	11.4410	0.1746
984	1	72.7053	12.5291	0.4399
985	1	74.5092	7.0867	1.7365
986	1	73.2570	7.2876	1.1637
987	1	74.9607	7.9316	2.7453
988	1	72.4514	8.3350	1.5942
989	1	71.7398	9.0859	0.6701
990	1	73.3457	6.9939	-0.1897
991	1	72.6458	7.7561	-1.1170
992	1	71.8357	8.8051	-0.6878
993	1	77.1364	7.9447	1.7358
994	1	76.6895	7.0991	0.7293
995	1	76.2785	8.3634	2.7435
996	1	75.3678	6.6673	0.7302
997	1	74.6560	6.6096	-0.4594
998	1	77.2889	7.4750	-0.4640
999	1	76.5790	7.4282	-1.6580