ITEM: TIMESTEP
0
ITEM: NUMBER OF ATOMS
1860
ITEM: BOX BOUNDS pp pp pp
-5.0000000000000000e+01 2.0000000000000000e+02
-5.0000000000000000e+01 5.0000000000000000e+01
-1.0000000000000000e+01 1.0000000000000000e+01
ITEM: ATOMS id type xs ys zs
30 1 0.193131 0.475841 0.490824
37 1 0.198562 0.471668 0.477232
40 1 0.201024 0.475248 0.416738
330 1 0.254105 0.472876 0.489636
337 1 0.25955 0.468872 0.47565
340 1 0.261993 0.472722 0.415438
390 1 0.292144 0.472872 0.489797
397 1 0.297591 0.468881 0.475827
400 1 0.300037 0.472729 0.415629
630 1 0.373861 0.47292 0.489678
637 1 0.379308 0.468986 0.475293
640 1 0.381716 0.472866 0.414914
690 1 0.41154 0.475256 0.49293
697 1 0.416904 0.470583 0.479097
700 1 0.419373 0.473809 0.418126
937 1 0.478597 0.472959 0.475811
1170 1 0.534881 0.475631 0.489275
1177 1 0.540386 0.472212 0.475155
1230 1 0.57225 0.473015 0.489746
1237 1 0.577694 0.468996 0.475779
1240 1 0.580144 0.472831 0.415588
1470 1 0.652419 0.472984 0.489631
1477 1 0.657869 0.469008 0.475725
1480 1 0.660316 0.472864 0.415563
1650 1 0.712366 0.472991 0.489638
1657 1 0.717816 0.469013 0.475732
1660 1 0.720264 0.472867 0.415567
1710 1 0.773196 0.475921 0.490177
1717 1 0.77866 0.472044 0.476434
1720 1 0.781094 0.475856 0.416128
31 1 0.190323 0.48348 0.443528
32 1 0.187054 0.494603 0.465077
41 1 0.191156 0.500559 0.364232
46 1 0.187697 0.51857 0.436682
47 1 0.187567 0.505156 0.416062
38 1 0.209432 0.480282 0.476365
39 1 0.206538 0.479618 0.416309
42 1 0.192859 0.487162 0.381202
43 1 0.198129 0.483107 0.368002
44 1 0.19477 0.50951 0.334524
48 1 0.194905 0.523331 0.355742
53 1 0.208738 0.51447 0.362796
54 1 0.210669 0.523431 0.414144
56 1 0.203693 0.51657 0.333781
57 1 0.201854 0.492329 0.337446
58 1 0.207051 0.490172 0.367305
59 1 0.210441 0.501078 0.379802
60 1 0.2002 0.505333 0.320941
5 1 0.212927 0.491514 0.489245
7 1 0.213561 0.515578 0.46293
8 1 0.213422 0.501761 0.441673
332 1 0.247953 0.491573 0.465555
346 1 0.248502 0.515653 0.439248
347 1 0.248424 0.502308 0.417481
339 1 0.267491 0.477221 0.415307
331 1 0.251264 0.480604 0.443026
341 1 0.252024 0.497974 0.365221
342 1 0.25378 0.484561 0.381002
343 1 0.259064 0.48068 0.367416
344 1 0.2556 0.507117 0.336275
348 1 0.255681 0.520865 0.358706
356 1 0.26449 0.514407 0.335956
357 1 0.26275 0.490099 0.337613
358 1 0.267957 0.487956 0.367195
360 1 0.261044 0.503121 0.322248
338 1 0.270379 0.477739 0.475449
353 1 0.269545 0.512329 0.364695
305 1 0.273809 0.489043 0.489266
307 1 0.274329 0.513195 0.465029
308 1 0.274252 0.499459 0.442586
354 1 0.271423 0.521152 0.416927
359 1 0.271295 0.498918 0.380575
392 1 0.286023 0.491593 0.465696
406 1 0.286578 0.515656 0.439388
407 1 0.286495 0.502321 0.417627
399 1 0.305533 0.477238 0.4156
391 1 0.289313 0.480604 0.443096
401 1 0.29008 0.497977 0.36527
402 1 0.291825 0.484552 0.381016
403 1 0.297113 0.480677 0.367517
404 1 0.293654 0.507133 0.336361
408 1 0.293739 0.520883 0.358804
416 1 0.302549 0.514404 0.336333
417 1 0.300801 0.490108 0.337831
418 1 0.306004 0.487977 0.367542
420 1 0.2991 0.503131 0.322466
413 1 0.3076 0.51233 0.365164
398 1 0.308426 0.477758 0.475692
365 1 0.311876 0.489031 0.489537
367 1 0.31242 0.513203 0.465332
368 1 0.312333 0.499457 0.442888
414 1 0.309495 0.52116 0.417287
419 1 0.309352 0.498919 0.380985
631 1 0.370982 0.480612 0.443279
632 1 0.367658 0.491536 0.466036
641 1 0.371672 0.497989 0.365416
642 1 0.373463 0.484601 0.381084
643 1 0.378749 0.480787 0.367111
644 1 0.375217 0.507172 0.336206
646 1 0.368146 0.515624 0.439677
647 1 0.368084 0.502277 0.417919
648 1 0.375281 0.52092 0.358629
656 1 0.384094 0.514572 0.335237
657 1 0.382403 0.490247 0.337023
660 1 0.380663 0.503245 0.321776
638 1 0.390122 0.477987 0.474291
639 1 0.387205 0.477431 0.414374
605 1 0.39354 0.489328 0.48785
607 1 0.39399 0.513485 0.463596
608 1 0.393945 0.49975 0.441126
653 1 0.389167 0.512557 0.363585
654 1 0.39105 0.521403 0.415688
658 1 0.387629 0.48817 0.366218
659 1 0.390957 0.499167 0.379321
691 1 0.408815 0.483014 0.445352
692 1 0.405728 0.494476 0.466551
701 1 0.409827 0.499811 0.36486
702 1 0.411352 0.486312 0.382494
703 1 0.416557 0.48178 0.369101
704 1 0.413537 0.508388 0.334243
706 1 0.406677 0.518293 0.436538
707 1 0.406351 0.50485 0.416824
708 1 0.413874 0.522245 0.354587
717 1 0.420385 0.490618 0.337654
720 1 0.418899 0.503716 0.320451
716 1 0.422549 0.514685 0.332301
698 1 0.427883 0.478296 0.476646
699 1 0.424942 0.477721 0.41693
665 1 0.431539 0.489253 0.488445
667 1 0.432477 0.513189 0.460535
668 1 0.432144 0.499336 0.440173
713 1 0.427577 0.512236 0.361009
714 1 0.429655 0.521163 0.411604
718 1 0.425567 0.488105 0.367215
719 1 0.429112 0.498748 0.378661
930 1 0.473148 0.476947 0.489675
931 1 0.47031 0.484662 0.442973
932 1 0.466992 0.495629 0.465378
941 1 0.471075 0.50202 0.365095
942 1 0.472833 0.488614 0.380981
943 1 0.478122 0.48474 0.367525
944 1 0.474652 0.511167 0.336189
946 1 0.467535 0.51971 0.438929
947 1 0.467465 0.506357 0.417253
960 1 0.4801 0.507179 0.322356
938 1 0.489431 0.481862 0.47575
939 1 0.486543 0.481316 0.415621
940 1 0.481047 0.476798 0.415636
905 1 0.492874 0.493153 0.489562
907 1 0.493408 0.517326 0.465223
908 1 0.493329 0.503573 0.442868
953 1 0.488594 0.516413 0.365023
956 1 0.483542 0.518469 0.336157
957 1 0.481808 0.494166 0.337794
958 1 0.487012 0.492051 0.367524
959 1 0.490353 0.50301 0.380935
1171 1 0.531913 0.483116 0.442914
1172 1 0.528421 0.493699 0.465771
1181 1 0.532378 0.500637 0.36559
1182 1 0.534358 0.487404 0.381009
1184 1 0.5358 0.51017 0.336862
1186 1 0.528564 0.517835 0.44015
1187 1 0.528707 0.504525 0.417971
1178 1 0.551058 0.482182 0.475208
1179 1 0.548179 0.481442 0.415056
1180 1 0.54276 0.47638 0.415055
1183 1 0.539701 0.484084 0.367277
1145 1 0.554305 0.493801 0.489379
1147 1 0.554423 0.518001 0.465924
1148 1 0.554567 0.504304 0.442986
1193 1 0.549654 0.51678 0.365485
1196 1 0.544568 0.518363 0.336794
1197 1 0.543227 0.493905 0.337723
1198 1 0.548466 0.492269 0.367245
1199 1 0.551621 0.503542 0.380969
1200 1 0.541307 0.506754 0.322713
1231 1 0.569427 0.480765 0.443053
1232 1 0.566147 0.491776 0.465663
1241 1 0.570214 0.498138 0.365258
1242 1 0.571944 0.4847 0.380981
1244 1 0.573795 0.507276 0.336346
1246 1 0.566732 0.515834 0.439403
1247 1 0.566637 0.502502 0.41762
1248 1 0.573892 0.521027 0.358791
1238 1 0.588538 0.477809 0.475661
1239 1 0.585644 0.477308 0.415569
1205 1 0.591999 0.48906 0.48952
1207 1 0.592566 0.51323 0.465344
1208 1 0.592466 0.499486 0.442882
1243 1 0.577228 0.480796 0.367476
1253 1 0.587745 0.512389 0.365175
1254 1 0.589648 0.521206 0.417309
1256 1 0.582696 0.514496 0.336341
1257 1 0.580925 0.490208 0.337809
1258 1 0.586126 0.488047 0.367525
1259 1 0.589485 0.498968 0.380978
1260 1 0.579237 0.503243 0.322456
1471 1 0.649578 0.480704 0.442981
1472 1 0.646259 0.491661 0.465469
1481 1 0.650336 0.498078 0.365196
1482 1 0.652098 0.484672 0.380998
1486 1 0.646797 0.515744 0.439182
1487 1 0.646728 0.502399 0.41741
1478 1 0.6687 0.477922 0.475676
1479 1 0.665811 0.477387 0.415546
1445 1 0.672143 0.489209 0.489551
1447 1 0.672664 0.513379 0.465344
1448 1 0.672592 0.499635 0.44288
1483 1 0.657387 0.480811 0.367502
1484 1 0.653909 0.507235 0.33631
1488 1 0.65398 0.520983 0.358748
1493 1 0.66785 0.512485 0.365131
1494 1 0.669732 0.52132 0.417298
1496 1 0.662798 0.514547 0.336283
1497 1 0.661071 0.490245 0.33779
1498 1 0.666277 0.488126 0.367476
1499 1 0.669616 0.499084 0.380939
1500 1 0.659358 0.503257 0.322423
1651 1 0.709526 0.480711 0.442985
1652 1 0.706207 0.49167 0.465469
1661 1 0.710284 0.498084 0.365195
1666 1 0.706746 0.515754 0.439172
1667 1 0.706677 0.502408 0.41741
1658 1 0.728648 0.477924 0.475675
1659 1 0.725758 0.477389 0.415545
1662 1 0.712046 0.484677 0.381
1663 1 0.717335 0.480814 0.367504
1664 1 0.713857 0.507241 0.336305
1668 1 0.713929 0.52099 0.358731
1673 1 0.727798 0.512486 0.365116
1674 1 0.72968 0.521322 0.417282
1676 1 0.722746 0.51455 0.336272
1677 1 0.721019 0.490248 0.33779
1678 1 0.726224 0.488128 0.367471
1679 1 0.729564 0.499085 0.380926
1680 1 0.719306 0.503261 0.322422
1625 1 0.73209 0.489212 0.489542
1627 1 0.732612 0.513382 0.465325
1628 1 0.73254 0.499637 0.442867
1712 1 0.766971 0.494419 0.465249
1726 1 0.76742 0.518461 0.43793
1727 1 0.767398 0.505081 0.416698
1719 1 0.786572 0.480496 0.415928
1711 1 0.77033 0.483503 0.443213
1721 1 0.771026 0.500761 0.364687
1722 1 0.772837 0.487423 0.381072
1723 1 0.778139 0.483655 0.367729
1724 1 0.774571 0.509939 0.335397
1728 1 0.774596 0.523725 0.357245
1736 1 0.783438 0.517437 0.335033
1737 1 0.781791 0.493111 0.337599
1738 1 0.787003 0.491158 0.367391
1740 1 0.780034 0.506057 0.321659
1718 1 0.789458 0.481192 0.476031
1733 1 0.788499 0.515536 0.363981
1685 1 0.792865 0.492566 0.489457
1687 1 0.793311 0.516697 0.464233
1688 1 0.79328 0.502916 0.442336
1739 1 0.790308 0.502201 0.380407
45 1 0.191422 0.527789 0.406095
52 1 0.200421 0.527695 0.355261
49 1 0.202294 0.536379 0.405176
50 1 0.198706 0.540953 0.457043
51 1 0.193352 0.536736 0.457498
55 1 0.207491 0.534217 0.435035
90 1 0.194693 0.569807 0.494298
97 1 0.200135 0.565756 0.48084
100 1 0.202578 0.569293 0.420197
210 1 0.232816 0.569208 0.489521
217 1 0.238258 0.565168 0.47556
220 1 0.24071 0.569012 0.415393
345 1 0.252184 0.525078 0.409431
352 1 0.261177 0.52537 0.358551
349 1 0.263011 0.533945 0.409205
350 1 0.259408 0.538284 0.461471
351 1 0.25407 0.533923 0.461568
355 1 0.268217 0.531804 0.438835
405 1 0.290246 0.525098 0.409562
412 1 0.299237 0.525376 0.358809
409 1 0.301075 0.533949 0.409451
410 1 0.297471 0.538291 0.461688
411 1 0.292133 0.533936 0.461724
415 1 0.306282 0.531813 0.439117
450 1 0.314221 0.569264 0.489344
457 1 0.319663 0.565314 0.474697
460 1 0.322058 0.56921 0.414243
570 1 0.352106 0.569124 0.491493
577 1 0.357548 0.565182 0.476803
580 1 0.359933 0.569062 0.416267
645 1 0.371798 0.525089 0.409594
652 1 0.380769 0.525494 0.358066
649 1 0.382608 0.534092 0.408579
650 1 0.379021 0.538384 0.461102
651 1 0.373693 0.533955 0.461592
655 1 0.387832 0.532017 0.437826
705 1 0.410489 0.527138 0.404954
712 1 0.419445 0.526138 0.353381
709 1 0.421463 0.534818 0.402476
710 1 0.417971 0.539849 0.454358
711 1 0.412562 0.536072 0.455562
750 1 0.414185 0.571323 0.497422
757 1 0.419573 0.56679 0.48415
760 1 0.422064 0.56998 0.423334
715 1 0.426647 0.532297 0.432009
870 1 0.453783 0.565227 0.489623
877 1 0.459228 0.561187 0.475769
945 1 0.471221 0.529133 0.409149
948 1 0.474727 0.524921 0.358524
952 1 0.480223 0.529436 0.358521
880 1 0.461685 0.565016 0.415627
950 1 0.478441 0.542372 0.461254
951 1 0.473109 0.537969 0.46129
878 1 0.470074 0.570002 0.475762
879 1 0.467187 0.569488 0.415613
954 1 0.49048 0.525263 0.417117
949 1 0.482053 0.538033 0.409095
955 1 0.487257 0.535906 0.438847
990 1 0.492376 0.565186 0.489731
997 1 0.497821 0.561162 0.47582
1000 1 0.500273 0.564985 0.415648
998 1 0.508669 0.569969 0.475695
999 1 0.505775 0.569456 0.415607
1185 1 0.532093 0.527649 0.410619
1188 1 0.535657 0.523885 0.35972
1110 1 0.531976 0.567966 0.48929
1191 1 0.533856 0.536556 0.463101
1117 1 0.537467 0.564308 0.475498
1192 1 0.541076 0.528941 0.359748
1194 1 0.551396 0.52572 0.417999
1120 1 0.53985 0.568264 0.41525
1189 1 0.54277 0.537568 0.410848
1190 1 0.5391 0.541499 0.463184
1195 1 0.548007 0.535968 0.440364
1245 1 0.570404 0.525262 0.409556
1251 1 0.572299 0.534091 0.461721
1252 1 0.579395 0.525487 0.358821
1249 1 0.581241 0.534047 0.409474
1250 1 0.577642 0.538414 0.461709
1255 1 0.586445 0.531877 0.439149
1290 1 0.59422 0.569263 0.489338
1297 1 0.599662 0.565312 0.474698
1300 1 0.602058 0.569209 0.414247
1410 1 0.632111 0.569073 0.491484
1485 1 0.650476 0.525185 0.409421
1417 1 0.637552 0.565128 0.476802
1420 1 0.639937 0.569007 0.416268
1491 1 0.652353 0.534036 0.461591
1492 1 0.659475 0.525502 0.358727
1489 1 0.661301 0.53408 0.409386
1490 1 0.65769 0.538411 0.461576
1495 1 0.666505 0.531949 0.439097
1665 1 0.710424 0.525196 0.4094
1530 1 0.694644 0.568949 0.489406
1537 1 0.700091 0.564933 0.475521
1540 1 0.702543 0.568796 0.41539
1672 1 0.719424 0.525507 0.358708
1669 1 0.721249 0.534089 0.409358
1670 1 0.717638 0.538427 0.461542
1671 1 0.712302 0.534051 0.461561
1675 1 0.726453 0.531953 0.439074
1725 1 0.771076 0.527911 0.407797
1732 1 0.780077 0.528356 0.356984
1729 1 0.781883 0.537018 0.407349
1730 1 0.77826 0.541297 0.459412
1731 1 0.772938 0.536842 0.459655
1735 1 0.787095 0.535062 0.437132
1770 1 0.77334 0.568873 0.492198
1777 1 0.778811 0.565121 0.478636
1780 1 0.781231 0.568804 0.418122
1734 1 0.790362 0.524492 0.415745
91 1 0.191852 0.577269 0.446709
92 1 0.188534 0.588325 0.467905
106 1 0.189074 0.612251 0.438697
107 1 0.188998 0.598814 0.418459
101 1 0.192608 0.594245 0.366778
98 1 0.210963 0.57455 0.479621
99 1 0.208078 0.573758 0.419544
102 1 0.19437 0.580922 0.384239
103 1 0.199657 0.576993 0.371147
104 1 0.196191 0.603238 0.336772
108 1 0.196272 0.617084 0.35765
113 1 0.210139 0.608587 0.36485
116 1 0.205086 0.610528 0.335789
117 1 0.203348 0.586245 0.34018
118 1 0.208553 0.584244 0.370098
120 1 0.201639 0.599185 0.323255
114 1 0.212021 0.617646 0.416049
119 1 0.211894 0.595257 0.382264
65 1 0.214404 0.585895 0.492129
67 1 0.214924 0.609918 0.465116
68 1 0.21485 0.596085 0.444221
211 1 0.229991 0.576971 0.442889
212 1 0.226707 0.587974 0.465502
226 1 0.227288 0.612044 0.439305
227 1 0.227192 0.59871 0.417489
218 1 0.249107 0.573959 0.475491
219 1 0.246212 0.573478 0.415386
221 1 0.230777 0.594354 0.365155
222 1 0.232511 0.580917 0.380859
223 1 0.237794 0.577003 0.367374
224 1 0.234362 0.60349 0.33631
228 1 0.23446 0.617237 0.358792
233 1 0.248312 0.608585 0.365156
236 1 0.243263 0.610703 0.336334
237 1 0.241491 0.586416 0.337756
238 1 0.246693 0.584236 0.367425
240 1 0.239804 0.599452 0.322438
185 1 0.252564 0.585223 0.489394
187 1 0.253131 0.609406 0.46533
188 1 0.253029 0.595663 0.44283
234 1 0.250215 0.617394 0.417324
239 1 0.25005 0.595158 0.380916
452 1 0.308028 0.587926 0.466064
451 1 0.311337 0.576986 0.443098
461 1 0.312026 0.594392 0.365345
462 1 0.313806 0.580986 0.380836
463 1 0.319085 0.577157 0.366598
464 1 0.31557 0.60357 0.336049
466 1 0.308534 0.612023 0.439797
467 1 0.308453 0.598679 0.418002
468 1 0.315651 0.617316 0.358483
476 1 0.324451 0.610946 0.334641
477 1 0.322737 0.586615 0.336439
480 1 0.321009 0.599629 0.321326
459 1 0.327549 0.57376 0.413508
478 1 0.327968 0.584517 0.365438
425 1 0.333895 0.585635 0.48679
427 1 0.334383 0.609803 0.462601
428 1 0.334298 0.596066 0.44015
458 1 0.330479 0.574293 0.47332
473 1 0.329529 0.608915 0.362791
474 1 0.331438 0.61775 0.414823
479 1 0.331299 0.595509 0.378473
572 1 0.345933 0.587782 0.468256
571 1 0.349221 0.57683 0.445205
581 1 0.349883 0.59421 0.367283
582 1 0.351668 0.580804 0.38277
583 1 0.35695 0.576984 0.368589
584 1 0.353406 0.60342 0.337883
586 1 0.346414 0.611852 0.441913
587 1 0.346344 0.598517 0.420167
588 1 0.35348 0.617176 0.360316
596 1 0.362285 0.610796 0.336762
597 1 0.360591 0.586474 0.338475
600 1 0.358849 0.599478 0.323345
545 1 0.371803 0.585514 0.488614
547 1 0.372269 0.609701 0.4644
548 1 0.372195 0.595955 0.441931
578 1 0.368367 0.574188 0.475218
579 1 0.36542 0.573641 0.415517
593 1 0.367363 0.608771 0.364912
594 1 0.36928 0.61762 0.416809
598 1 0.365825 0.584399 0.367453
599 1 0.369161 0.595384 0.380441
751 1 0.411458 0.578963 0.449454
752 1 0.408287 0.590334 0.46995
761 1 0.412426 0.595657 0.368355
762 1 0.41402 0.582253 0.38677
763 1 0.419247 0.577829 0.373904
764 1 0.416132 0.604252 0.337699
766 1 0.40911 0.614101 0.43917
767 1 0.408866 0.600634 0.419697
768 1 0.416402 0.618121 0.357854
777 1 0.423062 0.586681 0.342384
780 1 0.421527 0.599707 0.324567
725 1 0.434138 0.585708 0.49422
727 1 0.434997 0.609625 0.465865
728 1 0.434728 0.595751 0.445731
758 1 0.430526 0.574662 0.482392
759 1 0.427622 0.573971 0.422415
773 1 0.430155 0.608472 0.365851
774 1 0.432162 0.617477 0.416575
776 1 0.425129 0.610768 0.336642
778 1 0.428239 0.584305 0.372406
779 1 0.43174 0.595038 0.383913
871 1 0.450952 0.57297 0.442968
872 1 0.447645 0.583957 0.465379
881 1 0.451738 0.590326 0.365122
882 1 0.453483 0.576909 0.381007
883 1 0.458767 0.572993 0.367573
884 1 0.455329 0.599441 0.336234
886 1 0.448219 0.60803 0.439002
887 1 0.44813 0.594683 0.417267
888 1 0.455421 0.613191 0.358618
900 1 0.460773 0.59541 0.322388
885 1 0.451919 0.61742 0.409255
892 1 0.460924 0.617658 0.358601
845 1 0.47353 0.581258 0.489629
847 1 0.474076 0.605419 0.465357
848 1 0.473987 0.591676 0.442944
893 1 0.469281 0.604565 0.365042
894 1 0.471172 0.613386 0.417218
896 1 0.464231 0.60667 0.336193
897 1 0.462467 0.582386 0.337831
898 1 0.467669 0.580217 0.367513
899 1 0.471023 0.591147 0.380944
991 1 0.489545 0.572924 0.443046
992 1 0.486251 0.583924 0.465538
1001 1 0.490337 0.590289 0.365223
1002 1 0.492072 0.576859 0.38104
1003 1 0.497357 0.572952 0.367563
1004 1 0.493926 0.599408 0.336304
1006 1 0.486836 0.607998 0.439153
1007 1 0.48674 0.594653 0.41745
1008 1 0.494023 0.613161 0.358656
1020 1 0.499368 0.595375 0.322401
1005 1 0.490528 0.617396 0.409342
1012 1 0.499527 0.617622 0.358602
965 1 0.512133 0.58122 0.489506
967 1 0.512694 0.605381 0.465219
968 1 0.512597 0.591636 0.44282
1013 1 0.507881 0.604525 0.364991
1014 1 0.509783 0.613349 0.417109
1016 1 0.502829 0.606628 0.336186
1017 1 0.501056 0.582347 0.337828
1018 1 0.506259 0.580185 0.367514
1019 1 0.509621 0.591105 0.380884
1111 1 0.529032 0.575306 0.442208
1112 1 0.525587 0.586061 0.464151
1121 1 0.529579 0.592537 0.363391
1122 1 0.531499 0.579305 0.379938
1123 1 0.536833 0.575826 0.366574
1124 1 0.533051 0.601873 0.333962
1126 1 0.525836 0.610093 0.43649
1127 1 0.525923 0.596707 0.415407
1128 1 0.532965 0.615664 0.35569
1085 1 0.551504 0.585549 0.488137
1087 1 0.551746 0.609669 0.462508
1088 1 0.55183 0.595878 0.440795
1118 1 0.548175 0.57403 0.474915
1119 1 0.545292 0.573155 0.414872
1133 1 0.546933 0.608201 0.362363
1134 1 0.548723 0.617277 0.413995
1136 1 0.541856 0.609825 0.333438
1137 1 0.54041 0.585429 0.336217
1138 1 0.545638 0.583768 0.36606
1139 1 0.548857 0.594974 0.37892
1140 1 0.538544 0.59827 0.320177
1291 1 0.591337 0.576985 0.443087
1292 1 0.588028 0.587926 0.466049
1301 1 0.592027 0.594392 0.365337
1302 1 0.593806 0.580986 0.380829
1304 1 0.595572 0.603569 0.336045
1306 1 0.588534 0.612023 0.439783
1307 1 0.588454 0.59868 0.417988
1308 1 0.595653 0.617316 0.358479
1265 1 0.613895 0.585632 0.48681
1267 1 0.614384 0.6098 0.462622
1268 1 0.614299 0.596062 0.44017
1298 1 0.610478 0.57429 0.473335
1299 1 0.607549 0.573758 0.41352
1303 1 0.599086 0.577156 0.366599
1313 1 0.60953 0.608912 0.362806
1314 1 0.61144 0.617747 0.41484
1316 1 0.604453 0.610944 0.33465
1317 1 0.602738 0.586614 0.336445
1318 1 0.607968 0.584515 0.365451
1319 1 0.6113 0.595506 0.378491
1320 1 0.60101 0.599628 0.32133
1411 1 0.629226 0.57678 0.445198
1412 1 0.625937 0.587732 0.468242
1421 1 0.629888 0.59416 0.367274
1422 1 0.631673 0.580754 0.382766
1426 1 0.626418 0.611803 0.441897
1427 1 0.626349 0.598468 0.420152
1424 1 0.633412 0.603369 0.337878
1428 1 0.633485 0.617125 0.360306
1385 1 0.651806 0.58546 0.488623
1387 1 0.652273 0.609647 0.46441
1388 1 0.652199 0.595901 0.441944
1418 1 0.648371 0.574132 0.475227
1419 1 0.645425 0.573586 0.415522
1423 1 0.636955 0.576932 0.368593
1433 1 0.647368 0.608718 0.364918
1434 1 0.649285 0.617567 0.416815
1436 1 0.64229 0.610744 0.336764
1437 1 0.640596 0.586422 0.338486
1438 1 0.645829 0.584346 0.367464
1439 1 0.649165 0.595331 0.380452
1440 1 0.638854 0.599426 0.32335
1531 1 0.691808 0.576694 0.442807
1532 1 0.688492 0.587657 0.465307
1546 1 0.689047 0.611745 0.439118
1547 1 0.688969 0.598403 0.417289
1541 1 0.692579 0.594081 0.365096
1538 1 0.71093 0.573801 0.475574
1539 1 0.708041 0.573298 0.415426
1542 1 0.694333 0.580665 0.380864
1543 1 0.69962 0.576779 0.367407
1544 1 0.696159 0.603231 0.336292
1548 1 0.69624 0.616977 0.358761
1553 1 0.710101 0.608428 0.365216
1556 1 0.705052 0.610511 0.336351
1557 1 0.703309 0.586211 0.337802
1558 1 0.708512 0.584063 0.367487
1560 1 0.701606 0.599234 0.322457
1554 1 0.711991 0.617252 0.417399
1559 1 0.711854 0.595014 0.381005
1505 1 0.71437 0.585095 0.489505
1507 1 0.714912 0.609285 0.465442
1508 1 0.714827 0.595541 0.442955
1772 1 0.767053 0.587128 0.4664
1786 1 0.767433 0.611117 0.438087
1787 1 0.767449 0.597708 0.417365
1771 1 0.770446 0.57625 0.444807
1779 1 0.786698 0.57351 0.417701
1781 1 0.771091 0.59337 0.365529
1782 1 0.772942 0.580097 0.382487
1783 1 0.778258 0.576426 0.369279
1784 1 0.774613 0.602555 0.335865
1788 1 0.774598 0.616373 0.357209
1796 1 0.783459 0.610219 0.335231
1797 1 0.781887 0.585874 0.338664
1798 1 0.787105 0.58407 0.368597
1800 1 0.780088 0.598758 0.322238
1793 1 0.788526 0.608462 0.364274
1745 1 0.792962 0.585789 0.490741
1747 1 0.793332 0.609879 0.464496
1748 1 0.793346 0.596063 0.443152
1778 1 0.78958 0.574347 0.477785
1794 1 0.79036 0.617536 0.415686
1799 1 0.790378 0.59519 0.381226
105 1 0.19277 0.621513 0.407867
109 1 0.203601 0.630348 0.406854
110 1 0.199997 0.634939 0.45859
111 1 0.194675 0.630519 0.45908
112 1 0.201769 0.621584 0.357117
115 1 0.208805 0.628372 0.436736
157 1 0.198892 0.657681 0.477015
150 1 0.193424 0.661607 0.490796
159 1 0.206769 0.666325 0.416761
160 1 0.201296 0.661681 0.416919
225 1 0.230969 0.621465 0.409544
229 1 0.241809 0.630248 0.409507
230 1 0.238208 0.634605 0.461753
231 1 0.232865 0.630282 0.461754
232 1 0.239963 0.621694 0.35883
235 1 0.247013 0.628067 0.439183
277 1 0.257794 0.661216 0.475563
270 1 0.252343 0.665189 0.489439
280 1 0.260247 0.665083 0.415443
465 1 0.312185 0.621476 0.409617
469 1 0.323005 0.630464 0.408148
470 1 0.319435 0.634746 0.460871
471 1 0.314107 0.630314 0.461569
472 1 0.321141 0.621877 0.357695
475 1 0.328237 0.628379 0.43716
517 1 0.338561 0.657111 0.475455
510 1 0.333113 0.66112 0.489348
520 1 0.341013 0.660974 0.415321
585 1 0.350026 0.621359 0.411572
589 1 0.360828 0.630325 0.410064
590 1 0.357262 0.634645 0.462762
591 1 0.351932 0.63023 0.463496
592 1 0.35897 0.621732 0.359629
518 1 0.349397 0.666016 0.475497
519 1 0.34651 0.665487 0.415355
595 1 0.36606 0.628221 0.439071
765 1 0.412962 0.6229 0.407928
770 1 0.420355 0.635921 0.458098
771 1 0.41502 0.631734 0.45873
772 1 0.42196 0.622141 0.357354
817 1 0.418997 0.657553 0.476358
810 1 0.413524 0.661636 0.490238
820 1 0.421357 0.661922 0.416767
769 1 0.423902 0.630813 0.406808
775 1 0.42907 0.628462 0.43683
819 1 0.426816 0.666579 0.416576
890 1 0.459157 0.630568 0.461432
891 1 0.453814 0.626244 0.461428
889 1 0.462764 0.626219 0.409253
895 1 0.467966 0.624055 0.438981
1010 1 0.49777 0.630541 0.461433
1011 1 0.492427 0.626222 0.461483
1009 1 0.501373 0.626183 0.409219
1015 1 0.506577 0.624017 0.438895
1125 1 0.529413 0.619706 0.406173
1131 1 0.531204 0.628768 0.457846
1057 1 0.538312 0.658448 0.48028
1130 1 0.536486 0.633515 0.457495
1132 1 0.538406 0.620577 0.355314
1050 1 0.532892 0.662665 0.493777
1129 1 0.540142 0.629367 0.405502
1135 1 0.545368 0.62768 0.435276
1059 1 0.546288 0.666403 0.419285
1060 1 0.540772 0.662061 0.419792
1305 1 0.592187 0.621476 0.409608
1311 1 0.594108 0.630313 0.461563
1309 1 0.603006 0.630463 0.408154
1310 1 0.599436 0.634745 0.460872
1312 1 0.601143 0.621876 0.357699
1315 1 0.608239 0.628376 0.437173
1350 1 0.613113 0.66112 0.489347
1357 1 0.618561 0.657111 0.475454
1425 1 0.630031 0.621309 0.411558
1431 1 0.631936 0.630181 0.463482
1358 1 0.629397 0.666016 0.475496
1359 1 0.62651 0.665487 0.415354
1360 1 0.621013 0.660974 0.415321
1429 1 0.640833 0.630275 0.410059
1430 1 0.637267 0.634596 0.462752
1432 1 0.638975 0.621681 0.359623
1435 1 0.646065 0.62817 0.439072
1545 1 0.692736 0.621172 0.409442
1549 1 0.703572 0.630046 0.409497
1550 1 0.699961 0.634367 0.461711
1551 1 0.694625 0.629992 0.461671
1552 1 0.701738 0.621478 0.358816
1555 1 0.708777 0.627906 0.439219
1597 1 0.717797 0.661182 0.475515
1590 1 0.712346 0.665162 0.489386
1600 1 0.720251 0.665051 0.4154
1785 1 0.771064 0.620576 0.407574
1789 1 0.781844 0.629883 0.406767
1790 1 0.778207 0.634179 0.458643
1791 1 0.772899 0.629625 0.459063
1792 1 0.780065 0.621106 0.356767
1795 1 0.78706 0.628078 0.436634
1837 1 0.77875 0.658163 0.477823
1830 1 0.773289 0.661994 0.491555
1839 1 0.786662 0.666502 0.417224
1840 1 0.781181 0.661901 0.41746
151 1 0.190535 0.669127 0.443956
152 1 0.187157 0.679991 0.466167
161 1 0.191197 0.686417 0.365616
166 1 0.187577 0.704042 0.439213
167 1 0.187568 0.69068 0.417736
165 1 0.19122 0.713536 0.4092
158 1 0.20966 0.666987 0.476807
162 1 0.193026 0.673089 0.3818
163 1 0.198337 0.669402 0.368433
164 1 0.194733 0.695634 0.336444
173 1 0.208655 0.701333 0.365208
176 1 0.203592 0.703202 0.336276
177 1 0.201981 0.678876 0.338295
178 1 0.207194 0.676964 0.368157
179 1 0.210492 0.688009 0.381371
180 1 0.200201 0.691812 0.322585
168 1 0.194744 0.709397 0.358618
172 1 0.200218 0.714075 0.358487
174 1 0.210497 0.710277 0.417147
125 1 0.213059 0.678353 0.490408
127 1 0.213466 0.702483 0.465447
128 1 0.213463 0.688717 0.443331
272 1 0.24619 0.683881 0.465245
286 1 0.246738 0.707967 0.438964
287 1 0.246666 0.694623 0.417203
271 1 0.249506 0.672916 0.442762
278 1 0.268629 0.670142 0.475613
279 1 0.265742 0.669608 0.415479
281 1 0.250277 0.690304 0.365029
282 1 0.252033 0.676891 0.380818
283 1 0.257323 0.673033 0.367357
284 1 0.253854 0.699461 0.33617
293 1 0.267795 0.704708 0.365058
296 1 0.262744 0.706769 0.336166
297 1 0.261009 0.682468 0.337694
298 1 0.266212 0.680349 0.367435
300 1 0.259302 0.695482 0.3223
288 1 0.253927 0.71321 0.358578
245 1 0.272073 0.681424 0.48951
247 1 0.272605 0.705595 0.465316
248 1 0.272529 0.69185 0.442859
299 1 0.269555 0.691303 0.380904
294 1 0.26968 0.713541 0.417225
511 1 0.330275 0.668856 0.442722
512 1 0.326961 0.679824 0.465221
521 1 0.331049 0.686248 0.365021
522 1 0.332801 0.672829 0.380783
523 1 0.338089 0.66895 0.367319
524 1 0.334627 0.695401 0.336185
526 1 0.327516 0.703916 0.438994
527 1 0.32744 0.690572 0.417209
536 1 0.34352 0.702687 0.336176
537 1 0.341777 0.678386 0.337698
540 1 0.340074 0.691407 0.322329
525 1 0.331202 0.713347 0.409284
528 1 0.334706 0.70915 0.358601
532 1 0.340203 0.713654 0.358612
485 1 0.352843 0.677294 0.489404
487 1 0.353382 0.701474 0.465274
488 1 0.3533 0.68773 0.442799
533 1 0.34857 0.700607 0.365043
538 1 0.346981 0.676245 0.367382
539 1 0.350324 0.687195 0.380857
534 1 0.350459 0.709433 0.417218
811 1 0.410599 0.669134 0.443659
812 1 0.407196 0.679949 0.465961
821 1 0.411206 0.686442 0.365315
822 1 0.413065 0.673139 0.381434
823 1 0.418386 0.669544 0.368203
824 1 0.414736 0.695684 0.336189
826 1 0.40757 0.704011 0.439189
827 1 0.407577 0.690655 0.417575
837 1 0.422018 0.678999 0.337764
840 1 0.420211 0.691914 0.322209
825 1 0.411206 0.713527 0.409235
828 1 0.414733 0.709432 0.358591
832 1 0.420202 0.714141 0.35852
785 1 0.433121 0.678558 0.490295
787 1 0.43347 0.702647 0.4654
788 1 0.4335 0.688899 0.443089
818 1 0.429701 0.667254 0.476606
833 1 0.428659 0.701483 0.365113
836 1 0.42359 0.70331 0.336196
838 1 0.427237 0.677141 0.367663
839 1 0.430528 0.688183 0.381087
834 1 0.43049 0.710416 0.417133
1051 1 0.530077 0.670233 0.446404
1052 1 0.526802 0.681337 0.467976
1061 1 0.530899 0.687299 0.367083
1062 1 0.532607 0.673908 0.384055
1063 1 0.537882 0.669879 0.37093
1064 1 0.534515 0.696252 0.33741
1066 1 0.527439 0.705296 0.439618
1067 1 0.52731 0.691888 0.418944
1068 1 0.534646 0.710069 0.358714
1025 1 0.552683 0.678287 0.492163
1027 1 0.553305 0.702353 0.465867
1028 1 0.553174 0.688536 0.444581
1058 1 0.549186 0.667057 0.479301
1073 1 0.54848 0.70124 0.365766
1076 1 0.543436 0.70333 0.336755
1077 1 0.541607 0.679088 0.340289
1078 1 0.546804 0.676938 0.370182
1079 1 0.550192 0.68785 0.382709
1080 1 0.539947 0.692089 0.323818
1074 1 0.550405 0.710203 0.417145
1351 1 0.610275 0.668856 0.442722
1352 1 0.606961 0.679824 0.465221
1361 1 0.611049 0.686248 0.365021
1362 1 0.612801 0.672829 0.380783
1364 1 0.614627 0.695401 0.336185
1366 1 0.607516 0.703916 0.438994
1367 1 0.60744 0.690572 0.417209
1365 1 0.611202 0.713347 0.409284
1368 1 0.614706 0.70915 0.358601
1325 1 0.632843 0.677294 0.489403
1327 1 0.633382 0.701474 0.465274
1328 1 0.6333 0.68773 0.442799
1363 1 0.618089 0.668951 0.367319
1373 1 0.62857 0.700607 0.365043
1376 1 0.62352 0.702687 0.336176
1377 1 0.621777 0.678386 0.337698
1378 1 0.626981 0.676245 0.367381
1379 1 0.630324 0.687195 0.380857
1380 1 0.620074 0.691407 0.32233
1372 1 0.620203 0.713654 0.358612
1374 1 0.630459 0.709433 0.417218
1591 1 0.70951 0.672891 0.442715
1592 1 0.706195 0.683857 0.465207
1601 1 0.710284 0.690282 0.365002
1606 1 0.706745 0.707945 0.438953
1607 1 0.706672 0.694601 0.417179
1598 1 0.728632 0.670105 0.475587
1599 1 0.725746 0.669575 0.41545
1602 1 0.712038 0.676867 0.380777
1603 1 0.717327 0.673006 0.367321
1604 1 0.713861 0.699439 0.336158
1613 1 0.727802 0.704677 0.365067
1616 1 0.722752 0.706743 0.336172
1617 1 0.721015 0.682441 0.337678
1618 1 0.726217 0.680319 0.367424
1619 1 0.72956 0.691271 0.380904
1620 1 0.719309 0.695458 0.322294
1608 1 0.713935 0.713187 0.358578
1614 1 0.729687 0.713508 0.417244
1565 1 0.732077 0.681386 0.489498
1567 1 0.732612 0.705559 0.46533
1568 1 0.732534 0.691815 0.442861
1832 1 0.767059 0.680409 0.466523
1846 1 0.767517 0.704441 0.439252
1847 1 0.76749 0.691068 0.417963