ITEM: TIMESTEP
0
ITEM: NUMBER OF ATOMS
700
ITEM: BOX BOUNDS pp pp pp
-5.0000000000000000e+01 5.0000000000000000e+01
-5.0000000000000000e+01 5.0000000000000000e+01
-2.6797700000000002e-01 5.6007199999999997e+01
ITEM: ATOMS id type xs ys zs
93 1 0.456149 0.473846 0.047589
94 1 0.464744 0.463069 0.0524101
95 1 0.468135 0.460105 0.0761606
105 1 0.45867 0.47002 0.00473165
106 1 0.468196 0.460057 0.00955249
107 1 0.47184 0.45741 0.0333033
96 1 0.479969 0.453035 0.0809814
108 1 0.484259 0.451429 0.0381245
109 1 0.488601 0.450231 0.061875
110 1 0.50233 0.448995 0.0666957
111 1 0.506815 0.449399 0.0904464
119 1 0.493108 0.449409 0.0190177
120 1 0.506892 0.449409 0.0238382
121 1 0.511324 0.450214 0.047589
129 1 0.515741 0.451429 0.00473167
122 1 0.524229 0.455057 0.0524101
123 1 0.528095 0.457367 0.0761606
124 1 0.538476 0.466436 0.0809814
130 1 0.52816 0.45741 0.00955253
131 1 0.531804 0.460057 0.0333033
132 1 0.54133 0.47002 0.0381245
133 1 0.543811 0.473779 0.0618749
66 1 0.453981 0.522118 0.0524101
67 1 0.452211 0.517977 0.0761606
68 1 0.449144 0.504538 0.0809814
78 1 0.452184 0.517904 0.00955249
79 1 0.450792 0.513621 0.0333033
80 1 0.448942 0.499961 0.0381245
81 1 0.449144 0.495462 0.061875
82 1 0.452211 0.482023 0.0666957
83 1 0.453981 0.477882 0.0904464
91 1 0.449755 0.490922 0.0190177
92 1 0.454015 0.477812 0.0238382
11 1 0.549228 0.513546 0.0761606
21 1 0.551058 0.499961 0.00473166
22 1 0.549208 0.513621 0.0095525
23 1 0.547816 0.517904 0.0333033
134 1 0.549228 0.486454 0.0666957
135 1 0.550231 0.490845 0.0904464
137 1 0.545985 0.477812 0.0190177
138 1 0.550245 0.490922 0.0238382
139 1 0.550849 0.495385 0.0475891
140 1 0.550231 0.509155 0.0524101
54 1 0.468135 0.539894 0.0666957
55 1 0.464744 0.536931 0.0904464
63 1 0.475839 0.54498 0.0190177
64 1 0.464688 0.536878 0.0238382
65 1 0.461575 0.533622 0.047589
77 1 0.458716 0.530043 0.00473166
37 1 0.520103 0.546934 0.0475891
38 1 0.506815 0.550601 0.0524101
39 1 0.50233 0.551005 0.0761606
40 1 0.488601 0.549769 0.0809814
49 1 0.515815 0.548547 0.00473165
50 1 0.502252 0.551008 0.0095525
51 1 0.497748 0.551008 0.0333033
52 1 0.484185 0.548547 0.0381245
53 1 0.479968 0.546965 0.0618749
12 1 0.543811 0.526221 0.0809814
24 1 0.541284 0.530043 0.0381245
25 1 0.538476 0.533564 0.0618749
26 1 0.528095 0.542633 0.0666957
27 1 0.524229 0.544943 0.0904464
35 1 0.535312 0.536878 0.0190177
36 1 0.524161 0.54498 0.0238382
62 1 0.456189 0.473779 0.180981
72 1 0.458716 0.469957 0.138124
73 1 0.461524 0.466436 0.161874
74 1 0.471905 0.457367 0.166696
84 1 0.461575 0.466378 0.0952674
85 1 0.464688 0.463122 0.119018
86 1 0.47584 0.45502 0.123839
87 1 0.479897 0.453066 0.147589
88 1 0.493185 0.449399 0.15241
89 1 0.49767 0.448995 0.176161
90 1 0.5114 0.450231 0.180981
97 1 0.484185 0.451453 0.104732
98 1 0.497748 0.448992 0.109553
99 1 0.502252 0.448992 0.133304
100 1 0.515815 0.451453 0.138124
101 1 0.520031 0.453035 0.161874
112 1 0.520103 0.453066 0.0952673
102 1 0.531865 0.460106 0.166696
113 1 0.524161 0.45502 0.119018
114 1 0.535312 0.463122 0.123839
115 1 0.538425 0.466378 0.147589
125 1 0.541284 0.469957 0.104732
46 1 0.450772 0.513546 0.166696
57 1 0.454015 0.522188 0.119018
58 1 0.449756 0.509078 0.123839
59 1 0.449151 0.504616 0.147589
60 1 0.449769 0.490845 0.15241
61 1 0.450772 0.486454 0.176161
69 1 0.448942 0.500039 0.104732
70 1 0.450792 0.486379 0.109553
71 1 0.452184 0.482096 0.133304
1 1 0.550856 0.504538 0.161874
2 1 0.547789 0.517977 0.166696
5 1 0.550244 0.509079 0.119018
6 1 0.545985 0.522188 0.123839
116 1 0.546018 0.477881 0.15241
117 1 0.547789 0.482023 0.176161
118 1 0.550856 0.495462 0.180981
126 1 0.547816 0.482096 0.109553
127 1 0.549208 0.486379 0.133304
128 1 0.551058 0.500039 0.138124
136 1 0.550849 0.504615 0.0952674
32 1 0.475771 0.544943 0.15241
33 1 0.471905 0.542633 0.176161
34 1 0.461524 0.533564 0.180981
42 1 0.47184 0.54259 0.109553
43 1 0.468196 0.539943 0.133304
44 1 0.45867 0.52998 0.138124
45 1 0.456189 0.526221 0.161874
56 1 0.456149 0.526154 0.0952674
10 1 0.520031 0.546965 0.180981
16 1 0.515741 0.548571 0.138124
17 1 0.511399 0.549769 0.161874
18 1 0.49767 0.551005 0.166696
28 1 0.511324 0.549787 0.0952674
29 1 0.506892 0.550591 0.119018
30 1 0.493108 0.550591 0.123839
31 1 0.488677 0.549787 0.147589
41 1 0.484259 0.548571 0.104732
7 1 0.543851 0.526154 0.147589
8 1 0.535256 0.536931 0.15241
9 1 0.531865 0.539895 0.176161
13 1 0.54133 0.52998 0.104732
14 1 0.531804 0.539943 0.109553
15 1 0.52816 0.54259 0.133304
75 1 0.475771 0.455057 0.190447
233 1 0.456149 0.473846 0.247589
234 1 0.464744 0.463069 0.25241
245 1 0.45867 0.47002 0.204732
246 1 0.468196 0.460057 0.209554
247 1 0.47184 0.45741 0.233304
76 1 0.488677 0.450213 0.195268
248 1 0.484259 0.451429 0.238124
249 1 0.488601 0.450231 0.261875
250 1 0.50233 0.448995 0.266696
259 1 0.493108 0.449409 0.219018
260 1 0.506892 0.449409 0.223839
261 1 0.511324 0.450213 0.247589
269 1 0.515741 0.451429 0.204732
103 1 0.535256 0.463069 0.190447
104 1 0.543851 0.473846 0.195268
262 1 0.524229 0.455057 0.25241
270 1 0.52816 0.45741 0.209554
271 1 0.531804 0.460057 0.233304
272 1 0.54133 0.47002 0.238124
273 1 0.543811 0.473779 0.261875
47 1 0.449769 0.509155 0.190447
48 1 0.449151 0.495384 0.195268
206 1 0.453981 0.522118 0.25241
218 1 0.452184 0.517904 0.209554
219 1 0.450792 0.513621 0.233304
220 1 0.448942 0.499961 0.238124
221 1 0.449144 0.495462 0.261875
222 1 0.452211 0.482023 0.266696
231 1 0.449756 0.490921 0.219018
232 1 0.454015 0.477812 0.223839
3 1 0.546019 0.522118 0.190447
161 1 0.551058 0.499961 0.204732
162 1 0.549208 0.513621 0.209554
163 1 0.547816 0.517904 0.233304
274 1 0.549228 0.486454 0.266696
277 1 0.545985 0.477812 0.219018
278 1 0.550244 0.490922 0.223839
279 1 0.550849 0.495384 0.247589
280 1 0.550231 0.509155 0.25241
194 1 0.468135 0.539895 0.266696
203 1 0.475839 0.54498 0.219018
204 1 0.464688 0.536878 0.223839
205 1 0.461575 0.533622 0.247589
217 1 0.458716 0.530043 0.204732
19 1 0.493185 0.550601 0.190447
20 1 0.479897 0.546934 0.195268
177 1 0.520103 0.546934 0.247589
178 1 0.506815 0.550601 0.25241
189 1 0.515815 0.548547 0.204732
190 1 0.502252 0.551008 0.209554
191 1 0.497748 0.551008 0.233304
192 1 0.484185 0.548547 0.238124
193 1 0.479969 0.546965 0.261875
4 1 0.538425 0.533622 0.195268
164 1 0.541284 0.530043 0.238124
165 1 0.538476 0.533564 0.261875
166 1 0.528095 0.542633 0.266696
175 1 0.535312 0.536878 0.219018
176 1 0.52416 0.54498 0.223839
212 1 0.458716 0.469957 0.338125
213 1 0.461524 0.466436 0.361875
224 1 0.461575 0.466378 0.295267
225 1 0.464687 0.463123 0.319018
226 1 0.475839 0.45502 0.323839
235 1 0.468135 0.460106 0.27616
227 1 0.479897 0.453066 0.347589
228 1 0.493185 0.449399 0.35241
236 1 0.479969 0.453035 0.280981
237 1 0.484185 0.451453 0.304732
238 1 0.497748 0.448992 0.309553
239 1 0.502252 0.448992 0.333304
240 1 0.515815 0.451453 0.338125
241 1 0.520031 0.453035 0.361875
251 1 0.506815 0.449399 0.290446
252 1 0.520103 0.453066 0.295267
253 1 0.52416 0.45502 0.319018
254 1 0.535312 0.463122 0.323839
255 1 0.538425 0.466378 0.347589
263 1 0.528095 0.457367 0.27616
264 1 0.538476 0.466436 0.280981
265 1 0.541284 0.469957 0.304732
197 1 0.454015 0.522189 0.319018
198 1 0.449756 0.509079 0.323839
199 1 0.449151 0.504615 0.347589
200 1 0.449769 0.490845 0.35241
207 1 0.452211 0.517977 0.27616
208 1 0.449144 0.504538 0.280981
209 1 0.448942 0.500039 0.304732
210 1 0.450792 0.486379 0.309553
211 1 0.452184 0.482096 0.333304
223 1 0.453981 0.477882 0.290446
141 1 0.550856 0.504538 0.361875
145 1 0.550245 0.509078 0.319018
146 1 0.545985 0.522188 0.323839
151 1 0.549228 0.513546 0.27616
256 1 0.546019 0.477882 0.35241
266 1 0.547816 0.482096 0.309553
267 1 0.549208 0.486379 0.333304
268 1 0.551058 0.500039 0.338125
275 1 0.550231 0.490845 0.290446
276 1 0.550849 0.504616 0.295267
172 1 0.475771 0.544943 0.35241
182 1 0.47184 0.54259 0.309553
183 1 0.468196 0.539943 0.333304
184 1 0.45867 0.52998 0.338125
185 1 0.456189 0.526221 0.361875
195 1 0.464744 0.536931 0.290446
196 1 0.456149 0.526154 0.295267
156 1 0.515741 0.548571 0.338125
157 1 0.511399 0.549769 0.361875
168 1 0.511323 0.549787 0.295267
169 1 0.506893 0.550591 0.319018
170 1 0.493108 0.550591 0.323839
171 1 0.488676 0.549787 0.347589
179 1 0.50233 0.551005 0.27616
180 1 0.488601 0.549769 0.280981
181 1 0.484259 0.548571 0.304732
147 1 0.543851 0.526154 0.347589
148 1 0.535256 0.536932 0.35241
152 1 0.543811 0.526221 0.280981
153 1 0.54133 0.52998 0.304732
154 1 0.531804 0.539943 0.309553
155 1 0.52816 0.54259 0.333304
167 1 0.524229 0.544943 0.290446
202 1 0.456189 0.473779 0.380982
214 1 0.471905 0.457367 0.366696
215 1 0.475771 0.455057 0.390446
373 1 0.456149 0.473845 0.447589
374 1 0.464744 0.463068 0.45241
385 1 0.45867 0.47002 0.404732
386 1 0.468197 0.460057 0.409553
387 1 0.47184 0.45741 0.433303
216 1 0.488676 0.450214 0.395267
229 1 0.49767 0.448995 0.376161
230 1 0.511399 0.450231 0.380982
388 1 0.484259 0.451429 0.438125
399 1 0.493107 0.449409 0.419018
400 1 0.506892 0.449409 0.423839
401 1 0.511324 0.450213 0.447589
409 1 0.515741 0.451429 0.404732
242 1 0.531865 0.460105 0.366696
243 1 0.535256 0.463069 0.390446
244 1 0.543851 0.473846 0.395267
402 1 0.524229 0.455057 0.45241
410 1 0.528161 0.45741 0.409553
411 1 0.531804 0.460057 0.433303
412 1 0.54133 0.47002 0.438125
186 1 0.450772 0.513546 0.366696
187 1 0.449769 0.509155 0.390446
188 1 0.449151 0.495385 0.395267
201 1 0.450772 0.486454 0.376161
346 1 0.453981 0.522118 0.45241
358 1 0.452184 0.517904 0.409553
359 1 0.450792 0.513621 0.433303
360 1 0.448942 0.499961 0.438125
371 1 0.449755 0.490922 0.419018
372 1 0.454015 0.477812 0.423839
142 1 0.547789 0.517977 0.366696
143 1 0.546018 0.522118 0.390446
257 1 0.547789 0.482023 0.376161
258 1 0.550856 0.495462 0.380982
301 1 0.551058 0.499961 0.404732
302 1 0.549208 0.513621 0.409553
303 1 0.547816 0.517904 0.433303
417 1 0.545985 0.477811 0.419018
418 1 0.550245 0.490921 0.423839
419 1 0.550849 0.495385 0.447589
420 1 0.550231 0.509155 0.45241
173 1 0.471905 0.542633 0.376161
174 1 0.461524 0.533564 0.380982
343 1 0.47584 0.54498 0.419018
344 1 0.464688 0.536878 0.423839
345 1 0.461575 0.533622 0.447589
357 1 0.458716 0.530043 0.404732
150 1 0.520031 0.546965 0.380982
158 1 0.49767 0.551005 0.366696
159 1 0.493185 0.550601 0.390446
160 1 0.479897 0.546934 0.395267
317 1 0.520103 0.546934 0.447589
318 1 0.506815 0.550601 0.45241
329 1 0.515815 0.548547 0.404732
330 1 0.502252 0.551008 0.409553
331 1 0.497748 0.551008 0.433303
332 1 0.484185 0.548547 0.438125
144 1 0.538425 0.533622 0.395267
149 1 0.531865 0.539894 0.376161
304 1 0.541284 0.530043 0.438125
315 1 0.535313 0.536877 0.419018
316 1 0.524161 0.54498 0.423839
352 1 0.458716 0.469957 0.538124
364 1 0.461575 0.466377 0.495267
365 1 0.464688 0.463122 0.519018
366 1 0.475839 0.45502 0.523839
375 1 0.468135 0.460105 0.47616
376 1 0.479969 0.453035 0.480981
377 1 0.484185 0.451453 0.504732
378 1 0.497748 0.448991 0.509553
379 1 0.502252 0.448992 0.533303
380 1 0.515815 0.451453 0.538124
389 1 0.4886 0.450231 0.461875
390 1 0.502329 0.448995 0.466695
391 1 0.506815 0.449399 0.490446
392 1 0.520103 0.453066 0.495267
393 1 0.524161 0.45502 0.519018
394 1 0.535312 0.463122 0.523839
403 1 0.528095 0.457367 0.47616
404 1 0.538476 0.466436 0.480981
405 1 0.541284 0.469957 0.504732
413 1 0.543811 0.473779 0.461875
337 1 0.454015 0.522188 0.519018
338 1 0.449756 0.509079 0.523839
347 1 0.452211 0.517977 0.47616
348 1 0.449144 0.504538 0.480981
349 1 0.448942 0.500039 0.504732
350 1 0.450792 0.486379 0.509553
351 1 0.452184 0.482096 0.533303
361 1 0.449144 0.495462 0.461875
362 1 0.452211 0.482023 0.466695
363 1 0.453981 0.477882 0.490446
285 1 0.550244 0.509079 0.519018
286 1 0.545985 0.522188 0.523839
291 1 0.549228 0.513546 0.47616
406 1 0.547816 0.482096 0.509553
407 1 0.549208 0.486379 0.533303
408 1 0.551058 0.500039 0.538124
414 1 0.549228 0.486454 0.466695
415 1 0.550231 0.490845 0.490446
416 1 0.550849 0.504616 0.495267
322 1 0.47184 0.54259 0.509553
323 1 0.468196 0.539943 0.533303
324 1 0.45867 0.52998 0.538124
334 1 0.468136 0.539895 0.466695
335 1 0.464744 0.536931 0.490446
336 1 0.456149 0.526154 0.495267
296 1 0.515741 0.548571 0.538124
308 1 0.511323 0.549787 0.495267
309 1 0.506892 0.550591 0.519018
310 1 0.493108 0.550591 0.523839
319 1 0.50233 0.551005 0.47616
320 1 0.488601 0.549769 0.480981
321 1 0.484259 0.548571 0.504732
333 1 0.479969 0.546965 0.461875
292 1 0.543811 0.526221 0.480981
293 1 0.54133 0.52998 0.504732
294 1 0.531804 0.539943 0.509553
295 1 0.52816 0.54259 0.533303
305 1 0.538476 0.533564 0.461875
306 1 0.528096 0.542633 0.466695
307 1 0.524229 0.544943 0.490446
342 1 0.456189 0.473779 0.580982
353 1 0.461524 0.466436 0.561875
354 1 0.471905 0.457367 0.566696
355 1 0.475771 0.455057 0.590446
525 1 0.45867 0.47002 0.604732
526 1 0.468196 0.460057 0.609552
527 1 0.47184 0.45741 0.633303
356 1 0.488677 0.450213 0.595267
367 1 0.479897 0.453066 0.547589
368 1 0.493185 0.449399 0.55241
369 1 0.497671 0.448995 0.576161
370 1 0.511399 0.450231 0.580982
381 1 0.520031 0.453035 0.561875
539 1 0.493108 0.449409 0.619017
540 1 0.506892 0.449409 0.623838
549 1 0.515741 0.451429 0.604732
382 1 0.531865 0.460105 0.566696
383 1 0.535256 0.463069 0.590446
384 1 0.543851 0.473846 0.595267
395 1 0.538425 0.466378 0.547589
550 1 0.52816 0.457409 0.609552
551 1 0.531804 0.460057 0.633303
326 1 0.450772 0.513546 0.566696
327 1 0.449769 0.509155 0.590446
328 1 0.449151 0.495384 0.595267
339 1 0.449151 0.504615 0.547589
340 1 0.449769 0.490845 0.55241
341 1 0.450772 0.486454 0.576161
498 1 0.452184 0.517904 0.609552
499 1 0.450792 0.513621 0.633303
511 1 0.449756 0.490921 0.619017
512 1 0.454015 0.477812 0.623838
281 1 0.550856 0.504538 0.561875
282 1 0.547789 0.517977 0.566696
283 1 0.546019 0.522119 0.590446
396 1 0.546019 0.477882 0.55241
397 1 0.547789 0.482023 0.576161
398 1 0.550856 0.495462 0.580982
441 1 0.551058 0.499961 0.604732
442 1 0.549208 0.513621 0.609552
443 1 0.547816 0.517904 0.633303
557 1 0.545985 0.477812 0.619017
558 1 0.550244 0.490921 0.623838
312 1 0.475771 0.544943 0.55241
313 1 0.471905 0.542633 0.576161
314 1 0.461524 0.533564 0.580982
325 1 0.456189 0.526221 0.561875
483 1 0.475839 0.54498 0.619017
484 1 0.464688 0.536878 0.623838
497 1 0.458716 0.530043 0.604732
290 1 0.520031 0.546965 0.580982
297 1 0.5114 0.549769 0.561875
298 1 0.49767 0.551005 0.566696
299 1 0.493185 0.550601 0.590446
300 1 0.479897 0.546934 0.595267
311 1 0.488676 0.549787 0.547589
469 1 0.515815 0.548547 0.604732
470 1 0.502252 0.551009 0.609552
471 1 0.497748 0.551009 0.633303
284 1 0.538425 0.533622 0.595267
287 1 0.543851 0.526154 0.547589
288 1 0.535256 0.536932 0.55241
289 1 0.531864 0.539895 0.576161
455 1 0.535312 0.536878 0.619017
456 1 0.524161 0.54498 0.623838
504 1 0.461575 0.466377 0.695267
505 1 0.464688 0.463122 0.719017
506 1 0.475839 0.45502 0.723839
513 1 0.456149 0.473846 0.647589
514 1 0.464744 0.463069 0.65241
515 1 0.468136 0.460105 0.67616
516 1 0.479969 0.453035 0.680981
517 1 0.484185 0.451453 0.704732
518 1 0.497748 0.448992 0.709553
528 1 0.484259 0.451429 0.638124
529 1 0.488601 0.450231 0.661875
530 1 0.502329 0.448995 0.666696
531 1 0.506815 0.449399 0.690446
532 1 0.520103 0.453066 0.695267
541 1 0.511323 0.450213 0.647589
533 1 0.524161 0.45502 0.719017
534 1 0.535312 0.463122 0.723839
542 1 0.524229 0.455057 0.65241
543 1 0.528095 0.457367 0.67616
544 1 0.538476 0.466436 0.680981
545 1 0.541284 0.469957 0.704732
552 1 0.54133 0.470021 0.638124
553 1 0.543811 0.473779 0.661875
477 1 0.454015 0.522188 0.719017
478 1 0.449756 0.509079 0.723839
486 1 0.453981 0.522118 0.65241
487 1 0.452211 0.517977 0.67616
488 1 0.449144 0.504538 0.680981
489 1 0.448942 0.500039 0.704732
490 1 0.450792 0.486379 0.709553
500 1 0.448942 0.499961 0.638124
501 1 0.449144 0.495462 0.661875
502 1 0.452211 0.482023 0.666696
503 1 0.453981 0.477882 0.690446
425 1 0.550244 0.509079 0.719017
426 1 0.545985 0.522188 0.723839
431 1 0.549228 0.513546 0.67616
546 1 0.547816 0.482096 0.709553
554 1 0.549228 0.486454 0.666696
555 1 0.550231 0.490845 0.690447
556 1 0.550849 0.504616 0.695267
559 1 0.550849 0.495384 0.647589
560 1 0.550231 0.509155 0.65241
462 1 0.47184 0.54259 0.709553
474 1 0.468136 0.539895 0.666696
475 1 0.464744 0.536931 0.690446
476 1 0.456149 0.526154 0.695267
485 1 0.461575 0.533623 0.647589
448 1 0.511323 0.549787 0.695267
449 1 0.506892 0.550591 0.719017
450 1 0.493108 0.550591 0.723839
457 1 0.520103 0.546934 0.647589
458 1 0.506815 0.550601 0.65241
459 1 0.502329 0.551005 0.67616
460 1 0.488601 0.549769 0.680981
461 1 0.484259 0.548571 0.704732
472 1 0.484185 0.548547 0.638124
473 1 0.479969 0.546965 0.661875
432 1 0.543811 0.526221 0.680981
433 1 0.54133 0.52998 0.704732
434 1 0.531804 0.539943 0.709553
444 1 0.541284 0.530043 0.638124
445 1 0.538476 0.533564 0.661875
446 1 0.528095 0.542633 0.666696
447 1 0.524229 0.544943 0.690446
482 1 0.456189 0.473779 0.780981
492 1 0.458716 0.469957 0.738124
493 1 0.461524 0.466436 0.761875
494 1 0.471905 0.457367 0.766696
495 1 0.475771 0.455057 0.790446
665 1 0.45867 0.47002 0.804732
666 1 0.468196 0.460057 0.809553
496 1 0.488676 0.450213 0.795267
507 1 0.479897 0.453066 0.747589
508 1 0.493185 0.449399 0.75241
509 1 0.49767 0.448995 0.776161
510 1 0.5114 0.450231 0.780981
519 1 0.502252 0.448991 0.733303
520 1 0.515815 0.451453 0.738124
521 1 0.520031 0.453035 0.761875
689 1 0.515741 0.451429 0.804732
522 1 0.531864 0.460105 0.766696
523 1 0.535256 0.463068 0.790446
524 1 0.543851 0.473845 0.795267
535 1 0.538425 0.466377 0.747589
690 1 0.52816 0.45741 0.809553
466 1 0.450772 0.513546 0.766696
467 1 0.449769 0.509155 0.790446
468 1 0.449151 0.495385 0.795267
479 1 0.449151 0.504616 0.747589
480 1 0.449769 0.490845 0.75241
481 1 0.450772 0.486454 0.776161
491 1 0.452184 0.482095 0.733303
638 1 0.452184 0.517904 0.809553
421 1 0.550856 0.504538 0.761875
422 1 0.547789 0.517977 0.766696
423 1 0.546019 0.522118 0.790446
536 1 0.546019 0.477882 0.75241
537 1 0.547789 0.482023 0.776161
538 1 0.550856 0.495462 0.780981
547 1 0.549208 0.486379 0.733303
548 1 0.551058 0.500039 0.738124
581 1 0.551058 0.499961 0.804732
582 1 0.549208 0.513621 0.809553
452 1 0.475771 0.544943 0.75241
453 1 0.471905 0.542633 0.776161
454 1 0.461524 0.533564 0.780981
463 1 0.468196 0.539943 0.733303
464 1 0.45867 0.52998 0.738124
465 1 0.456189 0.526221 0.761875
637 1 0.458716 0.530043 0.804732
430 1 0.520031 0.546965 0.780981
436 1 0.515741 0.548571 0.738124
437 1 0.511399 0.549769 0.761875
438 1 0.49767 0.551005 0.766696
439 1 0.493185 0.550601 0.790446
440 1 0.479897 0.546934 0.795267
451 1 0.488677 0.549787 0.747589
609 1 0.515815 0.548547 0.804732
610 1 0.502252 0.551008 0.809553
424 1 0.538425 0.533622 0.795267
427 1 0.543851 0.526154 0.747589
428 1 0.535256 0.536931 0.75241
429 1 0.531865 0.539895 0.776161
435 1 0.52816 0.542591 0.733303
644 1 0.461575 0.466378 0.895267
653 1 0.456149 0.473846 0.847589
654 1 0.464744 0.463069 0.85241
655 1 0.468136 0.460105 0.87616
667 1 0.47184 0.45741 0.833304
656 1 0.479969 0.453035 0.880981
657 1 0.484185 0.451453 0.904732
668 1 0.484259 0.451429 0.838124
669 1 0.488601 0.450231 0.861875
670 1 0.502329 0.448995 0.866695
671 1 0.506815 0.449399 0.890446
672 1 0.520103 0.453066 0.895267
679 1 0.493108 0.449409 0.819017
680 1 0.506892 0.449409 0.823838
681 1 0.511323 0.450213 0.847589
682 1 0.524229 0.455057 0.85241
683 1 0.528096 0.457367 0.87616
684 1 0.538476 0.466436 0.880981
685 1 0.541284 0.469957 0.904732
691 1 0.531804 0.460057 0.833304
692 1 0.54133 0.47002 0.838124
693 1 0.543811 0.473779 0.861875
626 1 0.453981 0.522118 0.85241
627 1 0.452211 0.517977 0.87616
628 1 0.449144 0.504538 0.880981
629 1 0.448942 0.500039 0.904732
639 1 0.450792 0.513621 0.833304
640 1 0.448942 0.499961 0.838124
641 1 0.449144 0.495462 0.861875
642 1 0.452211 0.482023 0.866695
643 1 0.453981 0.477882 0.890446
651 1 0.449756 0.490921 0.819017
652 1 0.454015 0.477812 0.823838
571 1 0.549228 0.513546 0.87616
583 1 0.547816 0.517904 0.833304
694 1 0.549228 0.486454 0.866695
695 1 0.550231 0.490845 0.890446
696 1 0.550849 0.504616 0.895267
697 1 0.545985 0.477812 0.819017
698 1 0.550245 0.490922 0.823838
699 1 0.550849 0.495384 0.847589
700 1 0.550231 0.509155 0.85241
614 1 0.468136 0.539895 0.866695
615 1 0.464744 0.536932 0.890446
616 1 0.456149 0.526154 0.895267
623 1 0.475839 0.54498 0.819017
624 1 0.464688 0.536878 0.823838
625 1 0.461575 0.533622 0.847589
588 1 0.511323 0.549787 0.895267
597 1 0.520103 0.546934 0.847589
598 1 0.506815 0.550601 0.85241
599 1 0.502329 0.551005 0.87616
600 1 0.4886 0.549769 0.880981
601 1 0.484259 0.548571 0.904732
611 1 0.497748 0.551009 0.833304
612 1 0.484185 0.548547 0.838124
613 1 0.479969 0.546965 0.861875
572 1 0.543811 0.526221 0.880981
573 1 0.54133 0.52998 0.904732
584 1 0.541284 0.530043 0.838124
585 1 0.538476 0.533564 0.861874
586 1 0.528095 0.542633 0.866695
587 1 0.524229 0.544943 0.890446
595 1 0.535312 0.536878 0.819017
596 1 0.52416 0.54498 0.823838
622 1 0.456189 0.473779 0.980982
632 1 0.458716 0.469957 0.938125
633 1 0.461524 0.466436 0.961875
634 1 0.471905 0.457367 0.966695
635 1 0.475771 0.455057 0.990446
645 1 0.464688 0.463122 0.919018
646 1 0.475839 0.45502 0.923839
636 1 0.488676 0.450214 0.995267
647 1 0.479897 0.453066 0.947589
648 1 0.493185 0.449399 0.95241
649 1 0.49767 0.448995 0.976161
650 1 0.511399 0.450231 0.980982
658 1 0.497748 0.448992 0.909553
659 1 0.502252 0.448992 0.933303
660 1 0.515815 0.451453 0.938125
661 1 0.520031 0.453035 0.961875
662 1 0.531865 0.460105 0.966695
663 1 0.535256 0.463069 0.990446
664 1 0.543851 0.473846 0.995267
673 1 0.524161 0.45502 0.919018
674 1 0.535312 0.463122 0.923839
675 1 0.538425 0.466378 0.947589
606 1 0.450772 0.513546 0.966695
607 1 0.449769 0.509155 0.990446
608 1 0.449151 0.495385 0.995267
617 1 0.454015 0.522188 0.919018
618 1 0.449756 0.509078 0.923839
619 1 0.449151 0.504615 0.947589
620 1 0.449769 0.490845 0.95241
621 1 0.450772 0.486454 0.976161
630 1 0.450792 0.486379 0.909553
631 1 0.452184 0.482096 0.933303
561 1 0.550856 0.504538 0.961875
562 1 0.547789 0.517977 0.966695
563 1 0.546018 0.522118 0.990446
565 1 0.550244 0.509079 0.919018
566 1 0.545985 0.522188 0.923839
676 1 0.546019 0.477882 0.95241
677 1 0.547789 0.482023 0.976161
678 1 0.550856 0.495462 0.980982
686 1 0.547816 0.482096 0.909553
687 1 0.549208 0.486379 0.933303
688 1 0.551058 0.500039 0.938125
592 1 0.475771 0.544943 0.95241
593 1 0.471905 0.542633 0.976161
594 1 0.461524 0.533564 0.980982
602 1 0.47184 0.54259 0.909553
603 1 0.468196 0.539943 0.933303
604 1 0.45867 0.52998 0.938125
605 1 0.456189 0.526221 0.961875
570 1 0.520032 0.546965 0.980982
576 1 0.515741 0.548571 0.938125
577 1 0.5114 0.549769 0.961875
578 1 0.49767 0.551005 0.966695
579 1 0.493185 0.550601 0.990446
580 1 0.479897 0.546934 0.995267
589 1 0.506892 0.550591 0.919018
590 1 0.493108 0.550591 0.923839
591 1 0.488676 0.549786 0.947589
564 1 0.538425 0.533622 0.995267
567 1 0.543851 0.526154 0.947589
568 1 0.535256 0.536931 0.95241
569 1 0.531865 0.539894 0.976161
574 1 0.531804 0.539943 0.909553
575 1 0.52816 0.54259 0.933303
