ITEM: TIMESTEP
0
ITEM: NUMBER OF ATOMS
60
ITEM: BOX BOUNDS pp pp pp
-5.0000000000000000e+01 2.0000000000000000e+02
-5.0000000000000000e+01 5.0000000000000000e+01
-1.0000000000000000e+01 1.0000000000000000e+01
ITEM: ATOMS id type xs ys zs
30 1 0.193154 0.469053 0.489673
37 1 0.198605 0.465093 0.475784
38 1 0.20943 0.47403 0.47572
39 1 0.206544 0.473479 0.415584
40 1 0.201051 0.468945 0.415618
31 1 0.190309 0.47675 0.442978
32 1 0.186983 0.487696 0.46542
41 1 0.19106 0.494114 0.365124
45 1 0.191194 0.521203 0.409311
46 1 0.187513 0.51177 0.43907
47 1 0.187448 0.498427 0.417304
42 1 0.192829 0.480717 0.380993
43 1 0.19812 0.476873 0.367517
44 1 0.194633 0.503272 0.336231
48 1 0.194701 0.517019 0.358652
52 1 0.200193 0.521553 0.358617
53 1 0.208574 0.508573 0.365012
54 1 0.210453 0.517419 0.41716
56 1 0.20352 0.510609 0.336166
57 1 0.201801 0.486307 0.337757
58 1 0.207007 0.48421 0.367469
59 1 0.210343 0.495177 0.380888
60 1 0.200084 0.49931 0.322335
5 1 0.212866 0.485328 0.489554
7 1 0.213383 0.509491 0.465266
8 1 0.213316 0.495745 0.442847
49 1 0.202017 0.530138 0.409245
50 1 0.198404 0.534451 0.461425
51 1 0.193073 0.53005 0.461456
55 1 0.207223 0.528043 0.438952
25 1 0.197964 0.469975 0.589915
26 1 0.192758 0.472071 0.56021
34 1 0.206909 0.470064 0.537702
36 1 0.201578 0.465663 0.53774
17 1 0.191408 0.491543 0.634137
18 1 0.189639 0.50494 0.618266
22 1 0.186666 0.504372 0.556311
23 1 0.187117 0.514787 0.509604
28 1 0.189529 0.482696 0.581993
29 1 0.186598 0.490625 0.53389
1 1 0.208922 0.506002 0.634029
3 1 0.205348 0.496845 0.662907
9 1 0.198181 0.51381 0.661408
10 1 0.201862 0.523244 0.631654
11 1 0.199898 0.500806 0.676803
12 1 0.207153 0.519399 0.618168
13 1 0.209673 0.523366 0.556186
19 1 0.196462 0.489508 0.662969
20 1 0.192975 0.515907 0.631699
27 1 0.199789 0.478564 0.640526
33 1 0.208788 0.478912 0.589844
35 1 0.205281 0.483098 0.64049
2 1 0.212535 0.501689 0.581851
4 1 0.21247 0.488345 0.560088
6 1 0.212999 0.51242 0.533737
24 1 0.190553 0.526085 0.523442
14 1 0.198931 0.531172 0.583553
15 1 0.201377 0.53502 0.52338
16 1 0.206828 0.53106 0.509489
21 1 0.193438 0.526638 0.583582
